;;
;; Generated by CHARMM-GUI FF-Converter
;;
;; Correspondance:
;; jul316@lehigh.edu or wonpil@lehigh.edu
;;
;; GROMACS topology file for LIG
;;


[ moleculetype ]
; name	nrexcl
LIG	     3

[ atoms ]
; nr	type	resnr	residu	atom	cgnr	charge	mass
     1      OG2D1      1      LIG     O1      1    -0.524000    15.9994   ; qtot -0.524
     2      OG301      1      LIG     O2      2    -0.398000    15.9994   ; qtot -0.922
     3      CG2O1      1      LIG     C1      3     0.489000    12.0110   ; qtot -0.433
     4     CG2R61      1      LIG     C2      4    -0.115000    12.0110   ; qtot -0.548
     5     CG2R61      1      LIG     C3      5    -0.118000    12.0110   ; qtot -0.666
     6     CG2R61      1      LIG     C4      6    -0.117000    12.0110   ; qtot -0.783
     7     CG2R61      1      LIG     C5      7    -0.211000    12.0110   ; qtot -0.994
     8     CG2R61      1      LIG     C6      8    -0.173000    12.0110   ; qtot -1.167
     9     CG2R61      1      LIG     C7      9     0.225000    12.0110   ; qtot -0.942
    10     CG2R61      1      LIG     C8     10     0.124000    12.0110   ; qtot -0.818
    11     CG2R61      1      LIG     C9     11    -0.017000    12.0110   ; qtot -0.835
    12     CG2R51      1      LIG    C10     12    -0.393000    12.0110   ; qtot -1.228
    13     CG2R61      1      LIG    C11     13     0.086000    12.0110   ; qtot -1.142
    14     CG2R61      1      LIG    C12     14    -0.258000    12.0110   ; qtot -1.400
    15     CG2R51      1      LIG    C13     15    -0.075000    12.0110   ; qtot -1.475
    16     CG2RC0      1      LIG    C14     16     0.177000    12.0110   ; qtot -1.298
    17     CG2RC0      1      LIG    C15     17     0.219000    12.0110   ; qtot -1.079
    18      NG2S1      1      LIG     N1     18    -0.461000    14.0070   ; qtot -1.540
    19      NG301      1      LIG     N2     19    -0.349000    14.0070   ; qtot -1.889
    20      NG3P1      1      LIG     N3     20    -0.431000    14.0070   ; qtot -2.320
    21     NG2R51      1      LIG     N4     21    -0.114000    14.0070   ; qtot -2.434
    22      CG331      1      LIG    C16     22    -0.251000    12.0110   ; qtot -2.685
    23      CG331      1      LIG    C17     23    -0.251000    12.0110   ; qtot -2.936
    24      CG321      1      LIG    C18     24    -0.003000    12.0110   ; qtot -2.939
    25      CG321      1      LIG    C19     25    -0.181000    12.0110   ; qtot -3.120
    26      CG321      1      LIG    C20     26    -0.132000    12.0110   ; qtot -3.252
    27      CG321      1      LIG    C21     27     0.029000    12.0110   ; qtot -3.223
    28      CG321      1      LIG    C22     28     0.029000    12.0110   ; qtot -3.194
    29      CG324      1      LIG    C23     29     0.135000    12.0110   ; qtot -3.059
    30      CG324      1      LIG    C24     30     0.135000    12.0110   ; qtot -2.924
    31      CG324      1      LIG    C25     31     0.191000    12.0110   ; qtot -2.733
    32      CG321      1      LIG    C26     32    -0.177000    12.0110   ; qtot -2.910
    33      CG321      1      LIG    C27     33    -0.178000    12.0110   ; qtot -3.088
    34      CG311      1      LIG    C28     34    -0.126000    12.0110   ; qtot -3.214
    35      HGR61      1      LIG     H1     35     0.116000     1.0080   ; qtot -3.098
    36      HGR61      1      LIG     H2     36     0.116000     1.0080   ; qtot -2.982
    37      HGR61      1      LIG     H3     37     0.116000     1.0080   ; qtot -2.866
    38      HGR61      1      LIG     H4     38     0.134000     1.0080   ; qtot -2.732
    39      HGR61      1      LIG     H5     39     0.134000     1.0080   ; qtot -2.598
    40      HGR51      1      LIG     H6     40     0.187000     1.0080   ; qtot -2.411
    41      HGR61      1      LIG     H7     41     0.184000     1.0080   ; qtot -2.227
    42      HGR52      1      LIG     H8     42     0.146000     1.0080   ; qtot -2.081
    43       HGP1      1      LIG     H9     43     0.341000     1.0080   ; qtot -1.740
    44       HGP2      1      LIG    H10     44     0.310000     1.0080   ; qtot -1.430
    45       HGA3      1      LIG    H11     45     0.090000     1.0080   ; qtot -1.340
    46       HGA3      1      LIG    H12     46     0.090000     1.0080   ; qtot -1.250
    47       HGA3      1      LIG    H13     47     0.090000     1.0080   ; qtot -1.160
    48       HGA3      1      LIG    H14     48     0.090000     1.0080   ; qtot -1.070
    49       HGA3      1      LIG    H15     49     0.090000     1.0080   ; qtot -0.980
    50       HGA3      1      LIG    H16     50     0.090000     1.0080   ; qtot -0.890
    51       HGA2      1      LIG    H17     51     0.090000     1.0080   ; qtot -0.800
    52       HGA2      1      LIG    H18     52     0.090000     1.0080   ; qtot -0.710
    53       HGA2      1      LIG    H19     53     0.090000     1.0080   ; qtot -0.620
    54       HGA2      1      LIG    H20     54     0.090000     1.0080   ; qtot -0.530
    55       HGA2      1      LIG    H21     55     0.090000     1.0080   ; qtot -0.440
    56       HGA2      1      LIG    H22     56     0.090000     1.0080   ; qtot -0.350
    57       HGA2      1      LIG    H23     57     0.090000     1.0080   ; qtot -0.260
    58       HGA2      1      LIG    H24     58     0.090000     1.0080   ; qtot -0.170
    59       HGA2      1      LIG    H25     59     0.090000     1.0080   ; qtot -0.080
    60       HGA2      1      LIG    H26     60     0.090000     1.0080   ; qtot  0.010
    61       HGA2      1      LIG    H27     61     0.090000     1.0080   ; qtot  0.100
    62       HGA2      1      LIG    H28     62     0.090000     1.0080   ; qtot  0.190
    63       HGA2      1      LIG    H29     63     0.090000     1.0080   ; qtot  0.280
    64       HGA2      1      LIG    H30     64     0.090000     1.0080   ; qtot  0.370
    65       HGA2      1      LIG    H31     65     0.090000     1.0080   ; qtot  0.460
    66       HGA2      1      LIG    H32     66     0.090000     1.0080   ; qtot  0.550
    67       HGA2      1      LIG    H33     67     0.090000     1.0080   ; qtot  0.640
    68       HGA2      1      LIG    H34     68     0.090000     1.0080   ; qtot  0.730
    69       HGA2      1      LIG    H35     69     0.090000     1.0080   ; qtot  0.820
    70       HGA2      1      LIG    H36     70     0.090000     1.0080   ; qtot  0.910
    71       HGA1      1      LIG    H37     71     0.090000     1.0080   ; qtot  1.000

[ bonds ]
; ai	aj	funct	b0	Kb
    1     3     1
    2     9     1
    2    24     1
    3    18     1
    3    25     1
    4     6     1
    4     9     1
    4    35     1
    5     9     1
    5    10     1
    5    36     1
    6    11     1
    6    37     1
    7     8     1
    7    13     1
    7    38     1
    8    14     1
    8    39     1
   10    11     1
   10    18     1
   11    26     1
   12    15     1
   12    16     1
   12    40     1
   13    16     1
   13    19     1
   14    17     1
   14    41     1
   15    21     1
   15    42     1
   16    17     1
   17    21     1
   18    43     1
   19    27     1
   19    28     1
   20    29     1
   20    30     1
   20    31     1
   20    44     1
   21    34     1
   22    34     1
   22    45     1
   22    46     1
   22    47     1
   23    34     1
   23    48     1
   23    49     1
   23    50     1
   24    32     1
   24    51     1
   24    52     1
   25    26     1
   25    53     1
   25    54     1
   26    55     1
   26    56     1
   27    29     1
   27    57     1
   27    58     1
   28    30     1
   28    59     1
   28    60     1
   29    61     1
   29    62     1
   30    63     1
   30    64     1
   31    33     1
   31    65     1
   31    66     1
   32    33     1
   32    67     1
   32    68     1
   33    69     1
   33    70     1
   34    71     1

[ pairs ]
; ai	aj	funct	c6	c12 or
; ai	aj	funct	fudgeQQ	q1	q2	c6	c12
    1    10     1
    1    26     1
    1    43     1
    1    53     1
    1    54     1
    2     6     1
    2    10     1
    2    33     1
    2    35     1
    2    36     1
    2    67     1
    2    68     1
    3     5     1
    3    11     1
    3    55     1
    3    56     1
    4    10     1
    4    24     1
    4    26     1
    4    36     1
    5     6     1
    5    24     1
    5    26     1
    5    35     1
    5    43     1
    6    18     1
    6    25     1
    6    55     1
    6    56     1
    7    12     1
    7    17     1
    7    27     1
    7    28     1
    7    41     1
    8    16     1
    8    19     1
    8    21     1
    9    11     1
    9    18     1
    9    32     1
    9    37     1
    9    51     1
    9    52     1
   10    25     1
   10    37     1
   10    55     1
   10    56     1
   11    35     1
   11    36     1
   11    43     1
   11    53     1
   11    54     1
   12    14     1
   12    19     1
   12    34     1
   13    14     1
   13    15     1
   13    21     1
   13    29     1
   13    30     1
   13    39     1
   13    40     1
   13    57     1
   13    58     1
   13    59     1
   13    60     1
   14    15     1
   14    34     1
   14    38     1
   15    22     1
   15    23     1
   15    71     1
   16    27     1
   16    28     1
   16    34     1
   16    38     1
   16    41     1
   16    42     1
   17    19     1
   17    22     1
   17    23     1
   17    39     1
   17    40     1
   17    42     1
   17    71     1
   18    26     1
   18    36     1
   18    53     1
   18    54     1
   19    20     1
   19    38     1
   19    61     1
   19    62     1
   19    63     1
   19    64     1
   20    32     1
   20    57     1
   20    58     1
   20    59     1
   20    60     1
   20    69     1
   20    70     1
   21    40     1
   21    41     1
   21    45     1
   21    46     1
   21    47     1
   21    48     1
   21    49     1
   21    50     1
   22    48     1
   22    49     1
   22    50     1
   23    45     1
   23    46     1
   23    47     1
   24    31     1
   24    69     1
   24    70     1
   25    43     1
   26    37     1
   27    30     1
   27    31     1
   27    44     1
   27    59     1
   27    60     1
   28    29     1
   28    31     1
   28    44     1
   28    57     1
   28    58     1
   29    33     1
   29    63     1
   29    64     1
   29    65     1
   29    66     1
   30    33     1
   30    61     1
   30    62     1
   30    65     1
   30    66     1
   31    61     1
   31    62     1
   31    63     1
   31    64     1
   31    67     1
   31    68     1
   32    65     1
   32    66     1
   33    44     1
   33    51     1
   33    52     1
   34    42     1
   35    37     1
   38    39     1
   39    41     1
   40    42     1
   44    61     1
   44    62     1
   44    63     1
   44    64     1
   44    65     1
   44    66     1
   45    71     1
   46    71     1
   47    71     1
   48    71     1
   49    71     1
   50    71     1
   51    67     1
   51    68     1
   52    67     1
   52    68     1
   53    55     1
   53    56     1
   54    55     1
   54    56     1
   57    61     1
   57    62     1
   58    61     1
   58    62     1
   59    63     1
   59    64     1
   60    63     1
   60    64     1
   65    69     1
   65    70     1
   66    69     1
   66    70     1
   67    69     1
   67    70     1
   68    69     1
   68    70     1

[ angles ] 
; ai	aj	ak	funct	th0	cth	S0	Kub
    9     2    24     5
    1     3    18     5
    1     3    25     5
   18     3    25     5
    6     4     9     5
    6     4    35     5
    9     4    35     5
    9     5    10     5
    9     5    36     5
   10     5    36     5
    4     6    11     5
    4     6    37     5
   11     6    37     5
    8     7    13     5
    8     7    38     5
   13     7    38     5
    7     8    14     5
    7     8    39     5
   14     8    39     5
    2     9     4     5
    2     9     5     5
    4     9     5     5
    5    10    11     5
    5    10    18     5
   11    10    18     5
    6    11    10     5
    6    11    26     5
   10    11    26     5
   15    12    16     5
   15    12    40     5
   16    12    40     5
    7    13    16     5
    7    13    19     5
   16    13    19     5
    8    14    17     5
    8    14    41     5
   17    14    41     5
   12    15    21     5
   12    15    42     5
   21    15    42     5
   12    16    13     5
   12    16    17     5
   13    16    17     5
   14    17    16     5
   14    17    21     5
   16    17    21     5
    3    18    10     5
    3    18    43     5
   10    18    43     5
   13    19    27     5
   13    19    28     5
   27    19    28     5
   29    20    30     5
   29    20    31     5
   29    20    44     5
   30    20    31     5
   30    20    44     5
   31    20    44     5
   15    21    17     5
   15    21    34     5
   17    21    34     5
   34    22    45     5
   34    22    46     5
   34    22    47     5
   45    22    46     5
   45    22    47     5
   46    22    47     5
   34    23    48     5
   34    23    49     5
   34    23    50     5
   48    23    49     5
   48    23    50     5
   49    23    50     5
    2    24    32     5
    2    24    51     5
    2    24    52     5
   32    24    51     5
   32    24    52     5
   51    24    52     5
    3    25    26     5
    3    25    53     5
    3    25    54     5
   26    25    53     5
   26    25    54     5
   53    25    54     5
   11    26    25     5
   11    26    55     5
   11    26    56     5
   25    26    55     5
   25    26    56     5
   55    26    56     5
   19    27    29     5
   19    27    57     5
   19    27    58     5
   29    27    57     5
   29    27    58     5
   57    27    58     5
   19    28    30     5
   19    28    59     5
   19    28    60     5
   30    28    59     5
   30    28    60     5
   59    28    60     5
   20    29    27     5
   20    29    61     5
   20    29    62     5
   27    29    61     5
   27    29    62     5
   61    29    62     5
   20    30    28     5
   20    30    63     5
   20    30    64     5
   28    30    63     5
   28    30    64     5
   63    30    64     5
   20    31    33     5
   20    31    65     5
   20    31    66     5
   33    31    65     5
   33    31    66     5
   65    31    66     5
   24    32    33     5
   24    32    67     5
   24    32    68     5
   33    32    67     5
   33    32    68     5
   67    32    68     5
   31    33    32     5
   31    33    69     5
   31    33    70     5
   32    33    69     5
   32    33    70     5
   69    33    70     5
   21    34    22     5
   21    34    23     5
   21    34    71     5
   22    34    23     5
   22    34    71     5
   23    34    71     5

[ dihedrals ]
; ai	aj	ak	al	funct	phi0	cp	mult
    9     2    24    32     9
    9     2    24    51     9
    9     2    24    52     9
    1     3    18    10     9
    1     3    18    43     9
   25     3    18    43     9
    1     3    25    26     9
    1     3    25    53     9
    1     3    25    54     9
   18     3    25    26     9
   18     3    25    53     9
   18     3    25    54     9
    9     4     6    11     9
    9     4     6    37     9
   35     4     6    37     9
    9     5    10    11     9
    9     5    10    18     9
   11     6     4    35     9
    4     6    11    10     9
    4     6    11    26     9
   13     7     8    14     9
   13     7     8    39     9
   38     7     8    39     9
    8     7    13    16     9
    8     7    13    19     9
   14     8     7    38     9
    7     8    14    17     9
    7     8    14    41     9
   39     8    14    41     9
    4     9     2    24     9
    5     9     2    24     9
    2     9     4     6     9
    2     9     4    35     9
    5     9     4     6     9
    5     9     4    35     9
    2     9     5    10     9
    2     9     5    36     9
    4     9     5    10     9
    4     9     5    36     9
   11    10     5    36     9
   18    10     5    36     9
    5    10    11     6     9
    5    10    11    26     9
   18    10    11    26     9
    5    10    18    43     9
   11    10    18    43     9
   10    11     6    37     9
   26    11     6    37     9
    6    11    10    18     9
    6    11    26    25     9
    6    11    26    55     9
    6    11    26    56     9
   10    11    26    25     9
   10    11    26    55     9
   10    11    26    56     9
   16    12    15    21     9
   16    12    15    42     9
   40    12    15    42     9
   15    12    16    17     9
   16    13     7    38     9
   19    13     7    38     9
    7    13    16    12     9
    7    13    16    17     9
    7    13    19    27     9
    7    13    19    28     9
   16    13    19    27     9
   16    13    19    28     9
   17    14     8    39     9
    8    14    17    16     9
    8    14    17    21     9
   21    15    12    40     9
   12    15    21    17     9
   12    15    21    34     9
   13    16    12    15     9
   13    16    12    40     9
   17    16    12    40     9
   12    16    13    19     9
   17    16    13    19     9
   12    16    17    14     9
   12    16    17    21     9
   13    16    17    14     9
   13    16    17    21     9
   16    17    14    41     9
   21    17    14    41     9
   14    17    21    15     9
   14    17    21    34     9
   16    17    21    34     9
   10    18     3    25     9
    3    18    10     5     9
    3    18    10    11     9
   13    19    27    29     9
   13    19    27    57     9
   13    19    27    58     9
   28    19    27    29     9
   28    19    27    57     9
   28    19    27    58     9
   13    19    28    30     9
   13    19    28    59     9
   13    19    28    60     9
   27    19    28    30     9
   27    19    28    59     9
   27    19    28    60     9
   30    20    29    61     9
   30    20    29    62     9
   31    20    29    61     9
   31    20    29    62     9
   44    20    29    61     9
   44    20    29    62     9
   29    20    30    63     9
   29    20    30    64     9
   31    20    30    63     9
   31    20    30    64     9
   44    20    30    63     9
   44    20    30    64     9
   29    20    31    33     9
   29    20    31    65     9
   29    20    31    66     9
   30    20    31    33     9
   30    20    31    65     9
   30    20    31    66     9
   44    20    31    65     9
   44    20    31    66     9
   17    21    15    42     9
   34    21    15    42     9
   15    21    17    16     9
   15    21    34    22     9
   15    21    34    23     9
   15    21    34    71     9
   17    21    34    22     9
   17    21    34    23     9
   17    21    34    71     9
   45    22    34    71     9
   46    22    34    71     9
   47    22    34    71     9
   48    23    34    71     9
   49    23    34    71     9
   50    23    34    71     9
    2    24    32    33     9
    2    24    32    67     9
    2    24    32    68     9
   51    24    32    67     9
   51    24    32    68     9
   52    24    32    67     9
   52    24    32    68     9
    3    25    26    11     9
    3    25    26    55     9
    3    25    26    56     9
   53    25    26    55     9
   53    25    26    56     9
   54    25    26    55     9
   54    25    26    56     9
   11    26    25    53     9
   11    26    25    54     9
   19    27    29    20     9
   19    27    29    61     9
   19    27    29    62     9
   57    27    29    61     9
   57    27    29    62     9
   58    27    29    61     9
   58    27    29    62     9
   19    28    30    20     9
   19    28    30    63     9
   19    28    30    64     9
   59    28    30    63     9
   59    28    30    64     9
   60    28    30    63     9
   60    28    30    64     9
   27    29    20    30     9
   27    29    20    31     9
   27    29    20    44     9
   20    29    27    57     9
   20    29    27    58     9
   28    30    20    29     9
   28    30    20    31     9
   28    30    20    44     9
   20    30    28    59     9
   20    30    28    60     9
   33    31    20    44     9
   20    31    33    32     9
   20    31    33    69     9
   20    31    33    70     9
   65    31    33    69     9
   65    31    33    70     9
   66    31    33    69     9
   66    31    33    70     9
   33    32    24    51     9
   33    32    24    52     9
   24    32    33    31     9
   24    32    33    69     9
   24    32    33    70     9
   67    32    33    69     9
   67    32    33    70     9
   68    32    33    69     9
   68    32    33    70     9
   32    33    31    65     9
   32    33    31    66     9
   31    33    32    67     9
   31    33    32    68     9
   21    34    22    45     9
   21    34    22    46     9
   21    34    22    47     9
   23    34    22    45     9
   23    34    22    46     9
   23    34    22    47     9
   21    34    23    48     9
   21    34    23    49     9
   21    34    23    50     9
   22    34    23    48     9
   22    34    23    49     9
   22    34    23    50     9

[ dihedrals ]
; ai	aj	ak	al	funct	q0	cq
    3    25    18     1     2

#ifdef POSRES
[ position_restraints ]
    1     1    POSRES_FC_BB    POSRES_FC_BB    POSRES_FC_BB   
    2     1    POSRES_FC_BB    POSRES_FC_BB    POSRES_FC_BB   
    3     1    POSRES_FC_BB    POSRES_FC_BB    POSRES_FC_BB   
    4     1    POSRES_FC_BB    POSRES_FC_BB    POSRES_FC_BB   
    5     1    POSRES_FC_BB    POSRES_FC_BB    POSRES_FC_BB   
    6     1    POSRES_FC_BB    POSRES_FC_BB    POSRES_FC_BB   
    7     1    POSRES_FC_BB    POSRES_FC_BB    POSRES_FC_BB   
    8     1    POSRES_FC_BB    POSRES_FC_BB    POSRES_FC_BB   
    9     1    POSRES_FC_BB    POSRES_FC_BB    POSRES_FC_BB   
   10     1    POSRES_FC_BB    POSRES_FC_BB    POSRES_FC_BB   
   11     1    POSRES_FC_BB    POSRES_FC_BB    POSRES_FC_BB   
   12     1    POSRES_FC_BB    POSRES_FC_BB    POSRES_FC_BB   
   13     1    POSRES_FC_BB    POSRES_FC_BB    POSRES_FC_BB   
   14     1    POSRES_FC_BB    POSRES_FC_BB    POSRES_FC_BB   
   15     1    POSRES_FC_BB    POSRES_FC_BB    POSRES_FC_BB   
   16     1    POSRES_FC_BB    POSRES_FC_BB    POSRES_FC_BB   
   17     1    POSRES_FC_BB    POSRES_FC_BB    POSRES_FC_BB   
   18     1    POSRES_FC_BB    POSRES_FC_BB    POSRES_FC_BB   
   19     1    POSRES_FC_BB    POSRES_FC_BB    POSRES_FC_BB   
   20     1    POSRES_FC_BB    POSRES_FC_BB    POSRES_FC_BB   
   21     1    POSRES_FC_BB    POSRES_FC_BB    POSRES_FC_BB   
   22     1    POSRES_FC_BB    POSRES_FC_BB    POSRES_FC_BB   
   23     1    POSRES_FC_BB    POSRES_FC_BB    POSRES_FC_BB   
   24     1    POSRES_FC_BB    POSRES_FC_BB    POSRES_FC_BB   
   25     1    POSRES_FC_BB    POSRES_FC_BB    POSRES_FC_BB   
   26     1    POSRES_FC_BB    POSRES_FC_BB    POSRES_FC_BB   
   27     1    POSRES_FC_BB    POSRES_FC_BB    POSRES_FC_BB   
   28     1    POSRES_FC_BB    POSRES_FC_BB    POSRES_FC_BB   
   29     1    POSRES_FC_BB    POSRES_FC_BB    POSRES_FC_BB   
   30     1    POSRES_FC_BB    POSRES_FC_BB    POSRES_FC_BB   
   31     1    POSRES_FC_BB    POSRES_FC_BB    POSRES_FC_BB   
   32     1    POSRES_FC_BB    POSRES_FC_BB    POSRES_FC_BB   
   33     1    POSRES_FC_BB    POSRES_FC_BB    POSRES_FC_BB   
   34     1    POSRES_FC_BB    POSRES_FC_BB    POSRES_FC_BB   
#endif
