        34  EXT
         1         1  LIG       O1             38.9790000000        6.6250000000      -25.3310000000  HETA      1              81.7000000000
         2         1  LIG       O2             32.9790000000        3.9160000000      -22.9270000000  HETA      1              86.3000000000
         3         1  LIG       C1             38.0980000000        5.7580000000      -25.4160000000  HETA      1              84.0600000000
         4         1  LIG       C2             33.9600000000        3.0000000000      -24.8880000000  HETA      1              86.0500000000
         5         1  LIG       C3             34.9840000000        4.8560000000      -23.7590000000  HETA      1              87.3300000000
         6         1  LIG       C4             34.9600000000        3.0240000000      -25.8640000000  HETA      1              85.5500000000
         7         1  LIG       C5             32.5460000000        6.5280000000      -14.1170000000  HETA      1              89.3600000000
         8         1  LIG       C6             32.8230000000        6.9540000000      -12.8500000000  HETA      1              88.7600000000
         9         1  LIG       C7             33.9730000000        3.9180000000      -23.8660000000  HETA      1              88.1200000000
        10         1  LIG       C8             35.9720000000        4.8770000000      -24.7450000000  HETA      1              87.1300000000
        11         1  LIG       C9             35.9610000000        3.9750000000      -25.8030000000  HETA      1              84.8500000000
        12         1  LIG       C10            28.9270000000        5.9980000000      -13.5580000000  HETA      1              91.6200000000
        13         1  LIG       C11            31.2640000000        6.1770000000      -14.4920000000  HETA      1              92.3100000000
        14         1  LIG       C12            31.8530000000        7.0360000000      -11.9070000000  HETA      1              90.9600000000
        15         1  LIG       C13            28.4360000000        6.2520000000      -12.3320000000  HETA      1              90.6900000000
        16         1  LIG       C14            30.2810000000        6.2590000000      -13.5470000000  HETA      1              92.8800000000
        17         1  LIG       C15            30.5780000000        6.6880000000      -12.2550000000  HETA      1              92.5000000000
        18         1  LIG       N1             36.9880000000        5.8280000000      -24.6390000000  HETA      1              85.2300000000
        19         1  LIG       N2             31.0680000000        5.7270000000      -15.8260000000  HETA      1              92.4600000000
        20         1  LIG       N3             30.7130000000        5.6650000000      -18.5940000000  HETA      1              92.7100000000
        21         1  LIG       N4             29.4310000000        6.6720000000      -11.5410000000  HETA      1              92.2700000000
        22         1  LIG       C16            30.3430000000        6.3020000000       -9.2850000000  HETA      1              87.7200000000
        23         1  LIG       C17            27.9610000000        6.8440000000       -9.5520000000  HETA      1              86.2400000000
        24         1  LIG       C18            32.5030000000        5.1740000000      -22.7570000000  HETA      1              86.9300000000
        25         1  LIG       C19            38.2960000000        4.5910000000      -26.3190000000  HETA      1              81.8100000000
        26         1  LIG       C20            37.0000000000        4.1110000000      -26.8770000000  HETA      1              83.2400000000
        27         1  LIG       C21            32.0920000000        6.2070000000      -16.7600000000  HETA      1              89.1500000000
        28         1  LIG       C22            29.7190000000        5.7780000000      -16.4190000000  HETA      1              90.8000000000
        29         1  LIG       C23            32.0250000000        5.5030000000      -18.0180000000  HETA      1              90.0000000000
        30         1  LIG       C24            29.6840000000        5.0960000000      -17.7310000000  HETA      1              91.9100000000
        31         1  LIG       C25            30.7520000000        5.0940000000      -19.8490000000  HETA      1              91.6800000000
        32         1  LIG       C26            32.6890000000        5.4660000000      -21.3640000000  HETA      1              86.7100000000
        33         1  LIG       C27            31.4760000000        6.0610000000      -20.7450000000  HETA      1              89.8000000000
        34         1  LIG       C28            29.3540000000        7.0800000000      -10.1160000000  HETA      1              89.4500000000
