* GENERATED BY CHARMM-GUI (HTTP://WWW.CHARMM-GUI.ORG) V3.7 ON FEB, 08. 2026. JOB
* GENERATES LIPID PACKING USING BIG SPHERES
*  DATE:     2/ 8/26      2: 9: 4      CREATED BY USER: charmm-gui
*
       360  EXT
         1         1  CHL1      POLO           41.6560678986       30.0472849458       12.1428089844  HEAD      1               0.0000000000
         2         2  CHL1      POLO           20.1852408297      -32.9949211350       11.9395634903  HEAD      2               0.0000000000
         3         3  CHL1      POLO          -24.1458794743       27.6042561903       12.0882562054  HEAD      3               0.0000000000
         4         4  CHL1      POLO          -23.7945026058       18.5573757040       11.8520585404  HEAD      4               0.0000000000
         5         5  CHL1      POLO          -38.7100732897      -47.2315994966       12.0487138262  HEAD      5               0.0000000000
         6         6  CHL1      POLO           42.2587234107      -37.2087118833       12.0850902672  HEAD      6               0.0000000000
         7         7  CHL1      POLO           41.5155983483       13.1524424567       12.0106188805  HEAD      7               0.0000000000
         8         8  CHL1      POLO           34.6191356156      -49.6631762419       12.0076133339  HEAD      8               0.0000000000
         9         9  CHL1      POLO           49.3179647949      -50.5482431573       12.1723641703  HEAD      9               0.0000000000
        10        10  CHL1      POLO           34.2420265644       42.8999448339       11.8951052509  HEAD      10              0.0000000000
        11        11  CHL1      POLO           27.1068503675       30.9985315666       11.8372399785  HEAD      11              0.0000000000
        12        12  CHL1      POLO          -53.2234769940       46.3105386929       12.1064468406  HEAD      12              0.0000000000
        13        13  CHL1      POLO          -53.1280595676       54.6606247880       11.9098740084  HEAD      13              0.0000000000
        14        14  CHL1      POLO           48.8891433473       34.0916282269       11.9987856013  HEAD      14              0.0000000000
        15        15  CHL1      POLO           -9.8721930293       17.4103301613       11.8701583380  HEAD      15              0.0000000000
        16        16  CHL1      POLO           42.1314495288      -11.7978038740       11.9419366367  HEAD      16              0.0000000000
        17        17  CHL1      POLO          -53.3761839446       29.3525979539       12.1026916402  HEAD      17              0.0000000000
        18        18  CHL1      POLO           20.0306945749      -41.0558149433       11.9675246724  HEAD      18              0.0000000000
        19        19  CHL1      POLO            4.2803783186       35.7668231193       11.9996801038  HEAD      19              0.0000000000
        20        20  CHL1      POLO          -38.7717538971      -38.5427441309       11.9439328135  HEAD      20              0.0000000000
        21        21  CHL1      POLO           -1.9601253281      -36.7038581446       12.0171365355  HEAD      21              0.0000000000
        22        22  CHL1      POLO          -16.7367359576      -27.5622396790       11.9343589137  HEAD      22              0.0000000000
        23        23  CHL1      POLO          -17.0108964134      -35.8207431879       11.9789896217  HEAD      23              0.0000000000
        24        24  CHL1      POLO          -53.1322766286        4.3225605592       12.0287276786  HEAD      24              0.0000000000
        25        25  CHL1      POLO           -9.7050282786      -31.9567829958       11.9271592424  HEAD      25              0.0000000000
        26        26  CHL1      POLO           11.6871286042       -7.6834712858       12.0830519470  HEAD      26              0.0000000000
        27        27  CHL1      POLO           -2.4637800054       48.5556526472       12.0063647260  HEAD      27              0.0000000000
        28        28  CHL1      POLO          -22.9574799596      -13.3613361461       11.9386636452  HEAD      28              0.0000000000
        29        29  CHL1      POLO          -45.9807327445       50.2443919005       11.9754961241  HEAD      29              0.0000000000
        30        30  CHL1      POLO           19.7164239614       43.7911282382       11.9075207717  HEAD      30              0.0000000000
        31        31  CHL1      POLO           34.2608985965       34.5077798169       11.9255197697  HEAD      31              0.0000000000
        32        32  CHL1      POLO           49.5611837766       -7.9933901240       11.9623738030  HEAD      32              0.0000000000
        33        33  CHL1      POLO           -9.5309567842       52.7851674507       11.8310012939  HEAD      33              0.0000000000
        34        34  CHL1      POLO           42.6475473065      -28.7894663091       11.9666192018  HEAD      34              0.0000000000
        35        35  CHL1      POLO           26.7091994156        4.9095963558       12.0769239049  HEAD      35              0.0000000000
        36        36  CHL1      POLO           49.2970077610        0.2541087253       12.0597382306  HEAD      36              0.0000000000
        37        37  CHL1      POLO          -46.0379285118      -50.9679211146       11.8291783129  HEAD      37              0.0000000000
        38        38  CHL1      POLO           12.6794276082      -36.3451012863       11.9353285343  HEAD      38              0.0000000000
        39        39  POPC      POLO           19.7000243239       27.5331092539       12.0234043567  HEAD      39              0.0000000000
        40        40  POPC      POLO           12.7296619112       48.3620825070       12.0303826557  HEAD      40              0.0000000000
        41        41  POPC      POLO           34.9107246660      -32.5919867012       12.0809575519  HEAD      41              0.0000000000
        42        42  POPC      POLO           -1.3847699521      -21.3554536929       11.9323941663  HEAD      42              0.0000000000
        43        43  POPC      POLO           -9.3147136977      -40.3399412798       11.8995363531  HEAD      43              0.0000000000
        44        44  POPC      POLO           18.9055825742       19.3141347085       11.8115472837  HEAD      44              0.0000000000
        45        45  POPC      POLO           12.0610178164       24.1619578887       12.0785714205  HEAD      45              0.0000000000
        46        46  POPC      POLO           -6.8260936889      -14.8873567003       11.9914948650  HEAD      46              0.0000000000
        47        47  POPC      POLO          -30.3131688086       -8.6630803468       12.0258938698  HEAD      47              0.0000000000
        48        48  POPC      POLO            2.1743832524       19.6879616540       11.9963775552  HEAD      48              0.0000000000
        49        49  POPC      POLO           27.2223011253      -53.7953368463       12.0407889869  HEAD      49              0.0000000000
        50        50  POPC      POLO            9.2107431234       16.7329548930       11.6949423773  HEAD      50              0.0000000000
        51        51  POPC      POLO          -38.7171218089       20.7325937860       12.0322783585  HEAD      51              0.0000000000
        52        52  POPC      POLO          -37.2528299293        4.2239245197       12.1114389622  HEAD      52              0.0000000000
        53        53  POPC      POLO          -24.1126738933       53.3256494305       11.9536095500  HEAD      53              0.0000000000
        54        54  POPC      POLO          -31.5702999275       16.1921069182       12.0363377213  HEAD      54              0.0000000000
        55        55  POPC      POLO           48.8951975871       17.0120823156       12.0517713082  HEAD      55              0.0000000000
        56        56  POPC      POLO          -37.6015948148      -12.5758818888       11.8990314216  HEAD      56              0.0000000000
        57        57  POPC      POLO           -2.0818150134      -44.8184219598       11.9443267656  HEAD      57              0.0000000000
        58        58  POPC      POLO          -31.2969625386      -43.4239626905       12.0248295020  HEAD      58              0.0000000000
        59        59  POPC      POLO          -53.5103615879       37.7944210425       11.8272313810  HEAD      59              0.0000000000
        60        60  POPC      POLO           12.8090808796      -27.9617117572       11.9818700490  HEAD      60              0.0000000000
        61        61  POPC      POLO          -44.9138892812        0.0591940043       12.0872767970  HEAD      61              0.0000000000
        62        62  POPC      POLO          -38.6771466100       12.3361252055       11.8308087401  HEAD      62              0.0000000000
        63        63  POPC      POLO           27.7239393303       14.2746395434       12.0321664208  HEAD      63              0.0000000000
        64        64  POPC      POLO          -52.5967030622      -29.0740926325       12.1779485010  HEAD      64              0.0000000000
        65        65  POPC      POLO            4.2564745765       27.5215390693       12.0313060589  HEAD      65              0.0000000000
        66        66  POPC      POLO            5.4778935113      -31.8967906729       11.9594801156  HEAD      66              0.0000000000
        67        67  POPC      POLO           48.9266315053       50.8376679195       12.0851758560  HEAD      67              0.0000000000
        68        68  POPC      POLO           41.7271211884       46.9932551235       11.9532132595  HEAD      68              0.0000000000
        69        69  POPC      POLO           27.1851952786      -12.3409759699       12.0786470978  HEAD      69              0.0000000000
        70        70  POPC      POLO          -24.2913708399       45.1405573381       11.9837302712  HEAD      70              0.0000000000
        71        71  POPC      POLO           20.9896143379       10.4334405532       11.3745534678  HEAD      71              0.0000000000
        72        72  POPC      POLO          -17.4616950848       32.1877576260       11.9558076174  HEAD      72              0.0000000000
        73        73  POPC      POLO          -31.4975722681       24.3720938689       12.0805722760  HEAD      73              0.0000000000
        74        74  POPC      POLO           41.9537195282       21.8149293659       12.0800385426  HEAD      74              0.0000000000
        75        75  POPC      POLO           19.7347649078       -8.9067993077       12.1414438602  HEAD      75              0.0000000000
        76        76  POPC      POLO          -45.8467155202        8.3203041097       11.9552501842  HEAD      76              0.0000000000
        77        77  POPC      POLO           11.4705414200      -16.0088397020       12.0806929396  HEAD      77              0.0000000000
        78        78  POPC      POLO          -45.0999430017      -16.6475083541       11.9265756080  HEAD      78              0.0000000000
        79        79  POPC      POLO           26.9175547946       -3.7171329175       11.9643864663  HEAD      79              0.0000000000
        80        80  POPC      POLO           11.7616114254       31.9089968450       11.8520511026  HEAD      80              0.0000000000
        81        81  POPC      POLO          -45.8179194362      -34.0099535166       11.9562063958  HEAD      81              0.0000000000
        82        82  POPC      POLO          -46.1693930326       41.5623134173       11.8713214193  HEAD      82              0.0000000000
        83        83  POPC      POLO           34.6762436540      -41.1464233318       11.9905374023  HEAD      83              0.0000000000
        84        84  POPC      POLO          -37.3752157788       -4.1204396802       11.9562183655  HEAD      84              0.0000000000
        85        85  POPC      POLO           35.1762346786      -24.3910076235       11.9885461594  HEAD      85              0.0000000000
        86        86  POPC      POLO           20.1817691116       51.9399242991       11.9599776230  HEAD      86              0.0000000000
        87        87  POPC      POLO           -2.1070728637      -29.0189387692       12.1203494376  HEAD      87              0.0000000000
        88        88  POPC      POLO            6.6192668909      -22.5286022461       11.9664054139  HEAD      88              0.0000000000
        89        89  POPC      POLO          -38.6778200288       37.5214802213       11.9870561138  HEAD      89              0.0000000000
        90        90  POPC      POLO          -31.4002464501       41.2072564819       11.9724653381  HEAD      90              0.0000000000
        91        91  POPC      POLO           12.5975173280      -45.0441088380       11.9445371819  HEAD      91              0.0000000000
        92        92  POPC      POLO           48.8561424801        8.6172848185       11.9106372299  HEAD      92              0.0000000000
        93        93  POPC      POLO          -52.8497699228      -38.1054797010       12.0921422394  HEAD      93              0.0000000000
        94        94  POPC      POLO           41.6434375285       -3.4578348169       11.9761723818  HEAD      94              0.0000000000
        95        95  POPC      POLO          -29.8643170775        0.4267624298       11.9458632025  HEAD      95              0.0000000000
        96        96  POPC      POLO          -52.3370120882      -12.2996151571       12.0933996327  HEAD      96              0.0000000000
        97        97  POPC      POLO           41.5699441231        4.9736182285       12.0011026376  HEAD      97              0.0000000000
        98        98  POPC      POLO           49.3405332600      -41.8238325119       12.0502984788  HEAD      98              0.0000000000
        99        99  POPC      POLO           49.0963988280       42.3159788528       12.0635816535  HEAD      99              0.0000000000
       100       100  POPC      POLO          -16.8051958983      -52.2580240291       12.0786411511  HEAD      100             0.0000000000
       101       101  POPC      POLO          -24.1878187311      -30.8754173385       11.9455757767  HEAD      101             0.0000000000
       102       102  POPC      POLO           48.9104232199       25.5357125892       11.9835190000  HEAD      102             0.0000000000
       103       103  POPC      POLO           49.8256307149      -33.2347353050       11.8932913784  HEAD      103             0.0000000000
       104       104  POPC      POLO           27.5343640576      -45.2763263103       11.9427499427  HEAD      104             0.0000000000
       105       105  POPC      POLO          -38.5198726576      -29.8668898898       12.0307901236  HEAD      105             0.0000000000
       106       106  POPC      POLO           19.1642563375       -0.8977298590       11.8910138932  HEAD      106             0.0000000000
       107       107  POPC      POLO          -45.6996158707      -42.7066917597       11.9265324042  HEAD      107             0.0000000000
       108       108  POPC      POLO           13.0061587883      -53.2438810798       12.1548440466  HEAD      108             0.0000000000
       109       109  POPE      POLO          -20.3736534605        6.0479831018       11.8943129854  HEAD      109             0.0000000000
       110       110  POPE      POLO          -53.4747068718       12.5519970530       11.9839082371  HEAD      110             0.0000000000
       111       111  POPE      POLO          -31.4737952573       32.6394254295       12.0808278737  HEAD      111             0.0000000000
       112       112  POPE      POLO           -2.9762254851       31.8484410825       12.0915457681  HEAD      112             0.0000000000
       113       113  POPE      POLO           26.6173509290       22.6441173531       12.0093500846  HEAD      113             0.0000000000
       114       114  POPE      POLO           41.5933619499       38.4667680031       11.9876802242  HEAD      114             0.0000000000
       115       115  POPE      POLO          -38.7781735536       54.0697723614       12.0783598056  HEAD      115             0.0000000000
       116       116  POPE      POLO          -14.5822723067      -11.6863303786       12.0874080896  HEAD      116             0.0000000000
       117       117  POPE      POLO          -24.2222219013      -39.1898641499       12.0406869413  HEAD      117             0.0000000000
       118       118  POPE      POLO           41.7706271078      -54.2057425701       12.0065230452  HEAD      118             0.0000000000
       119       119  POPE      POLO           42.0951166285      -45.7665957395       11.9388487826  HEAD      119             0.0000000000
       120       120  POPE      POLO           49.6303802923      -16.3686782625       12.0738731969  HEAD      120             0.0000000000
       121       121  POPE      POLO           19.4669532315       35.4674006159       12.0079643060  HEAD      121             0.0000000000
       122       122  POPE      POLO           34.1467157335       26.2012251503       12.0338581285  HEAD      122             0.0000000000
       123       123  POPE      POLO           20.0808061372      -49.2182565021       11.9544421713  HEAD      123             0.0000000000
       124       124  POPE      POLO            4.7709721150       44.2677799199       12.0659670320  HEAD      124             0.0000000000
       125       125  POPE      POLO          -31.6496566398       49.3510697873       12.1436023504  HEAD      125             0.0000000000
       126       126  POPE      POLO          -39.0366527856       28.8987647679       12.0026933713  HEAD      126             0.0000000000
       127       127  POPE      POLO           -9.3482518178      -48.5561037928       12.0580833738  HEAD      127             0.0000000000
       128       128  POPE      POLO          -44.8515344362       -8.2965762435       11.9701633725  HEAD      128             0.0000000000
       129       129  POPE      POLO           -4.4473387132       23.4020885340       11.8891749769  HEAD      129             0.0000000000
       130       130  POPE      POLO          -53.1437405813      -46.5267608480       11.9406902001  HEAD      130             0.0000000000
       131       131  POPE      POLO          -17.1641905519       40.7664262014       11.9806333630  HEAD      131             0.0000000000
       132       132  POPE      POLO          -45.9749954567       33.3262004907       12.0794679512  HEAD      132             0.0000000000
       133       133  POPE      POLO           -9.8604101148       44.6234747531       12.0069306182  HEAD      133             0.0000000000
       134       134  POPE      POLO          -16.7523595012      -44.0274507781       12.0171228677  HEAD      134             0.0000000000
       135       135  POPE      POLO          -31.5086570119      -34.5957612530       11.9489298659  HEAD      135             0.0000000000
       136       136  POPE      POLO          -39.1023791391       45.7858009098       11.9882258604  HEAD      136             0.0000000000
       137       137  POPE      POLO          -31.1305127801      -26.2917053825       12.0010180418  HEAD      137             0.0000000000
       138       138  POPE      POLO          -15.9716401140      -19.3943855872       12.0037998393  HEAD      138             0.0000000000
       139       139  POPE      POLO          -37.9251458125      -21.1460248753       11.9870561928  HEAD      139             0.0000000000
       140       140  POPE      POLO           27.6082928387      -20.5272596360       12.0673817265  HEAD      140             0.0000000000
       141       141  POPE      POLO           34.7907180714       17.8514882153       12.0175664076  HEAD      141             0.0000000000
       142       142  POPE      POLO           20.1503302492      -24.6023451601       11.9838078833  HEAD      142             0.0000000000
       143       143  POPE      POLO           34.2150460712       -7.9200032236       11.9996417117  HEAD      143             0.0000000000
       144       144  POPE      POLO           -9.1472913701      -23.4786894251       12.1094513432  HEAD      144             0.0000000000
       145       145  POPE      POLO          -45.1261674104      -25.1931186145       11.9828009261  HEAD      145             0.0000000000
       146       146  POPE      POLO           27.0765617807       47.5611141795       11.9430660108  HEAD      146             0.0000000000
       147       147  POPE      POLO          -24.0993442465      -47.7584611008       12.0634728645  HEAD      147             0.0000000000
       148       148  POPE      POLO           27.4327779148      -28.7028904272       12.1017290799  HEAD      148             0.0000000000
       149       149  POPE      POLO            5.6232776162      -40.4251667880       11.9064022286  HEAD      149             0.0000000000
       150       150  POPE      POLO            5.4069859877       52.6492038998       11.9846799621  HEAD      150             0.0000000000
       151       151  POPE      POLO          -24.3959797318       36.5562562770       12.0754824165  HEAD      151             0.0000000000
       152       152  POPE      POLO          -46.1496451956       25.0596001504       12.0477516018  HEAD      152             0.0000000000
       153       153  POPE      POLO           19.7233582290      -16.8176098305       11.9235117687  HEAD      153             0.0000000000
       154       154  POPE      POLO           49.8586757934      -24.8272866005       12.0567041220  HEAD      154             0.0000000000
       155       155  POPE      POLO          -31.1968816115      -51.9452270667       12.0442590220  HEAD      155             0.0000000000
       156       156  POPE      POLO           34.1116158973        9.0730018569       11.9170851560  HEAD      156             0.0000000000
       157       157  POPE      POLO          -52.5908706955      -20.7151170116       11.9442181189  HEAD      157             0.0000000000
       158       158  POPE      POLO          -28.6020706980        8.6548484679       12.2339010350  HEAD      158             0.0000000000
       159       159  POPE      POLO           27.6542444326      -37.0262091886       11.9987066405  HEAD      159             0.0000000000
       160       160  POPE      POLO           -2.8220339369       40.3610276031       12.0571464589  HEAD      160             0.0000000000
       161       161  POPE      POLO           -2.0807585617      -52.7595047203       11.9873404657  HEAD      161             0.0000000000
       162       162  POPE      POLO          -10.5071610594       28.3375286511       11.9548217808  HEAD      162             0.0000000000
       163       163  POPE      POLO           34.8116825943      -16.0948430600       12.0372940696  HEAD      163             0.0000000000
       164       164  POPE      POLO          -30.2962001716      -17.3146169109       12.0643255542  HEAD      164             0.0000000000
       165       165  POPE      POLO          -46.2079132687       16.6370894982       11.9998187610  HEAD      165             0.0000000000
       166       166  POPE      POLO           34.2611592704        0.6851251499       12.0990675512  HEAD      166             0.0000000000
       167       167  POPE      POLO            5.3112095685      -48.7081883940       11.8299900834  HEAD      167             0.0000000000
       168       168  POPE      POLO          -16.9275398029       49.1237350025       12.0786964975  HEAD      168             0.0000000000
       169       169  POPE      POLO           34.5785616912       51.3935758085       11.9690437638  HEAD      169             0.0000000000
       170       170  POPE      POLO           42.3569633366      -20.3215836245       11.9652824947  HEAD      170             0.0000000000
       171       171  POPE      POLO          -52.6329142644       -3.9969034815       11.9757937443  HEAD      171             0.0000000000
       172       172  POPE      POLO          -23.0949768689       -4.3009117223       12.0859554875  HEAD      172             0.0000000000
       173       173  POPE      POLO          -53.4430445220       20.9839865351       11.9671610399  HEAD      173             0.0000000000
       174       174  POPE      POLO          -23.7884954431      -22.3438657094       12.0681958934  HEAD      174             0.0000000000
       175       175  POPE      POLO           12.0789099846       39.9596091123       12.0371245439  HEAD      175             0.0000000000
       176       176  POPE      POLO          -10.2423249252       36.3378600948       11.8904848137  HEAD      176             0.0000000000
       177       177  POPE      POLO           27.0760992837       39.2531938017       12.0117207993  HEAD      177             0.0000000000
       178       178  POPE      POLO          -16.7589533424       23.2218861154       12.0254320001  HEAD      178             0.0000000000
       179       179  CHL1      POLO          -52.7026544531       25.8698811531      -12.1476440051  HEAD      179             0.0000000000
       180       180  CHL1      POLO          -18.6090289567      -10.2565936988      -11.9403040712  HEAD      180             0.0000000000
       181       181  CHL1      POLO           -5.7990979206      -26.7366198733      -11.9390633358  HEAD      181             0.0000000000
       182       182  CHL1      POLO           37.0503217882       15.7554374011      -12.0692650527  HEAD      182             0.0000000000
       183       183  CHL1      POLO          -16.3883542235      -53.8945086167      -12.0951959566  HEAD      183             0.0000000000
       184       184  CHL1      POLO           27.8900206736      -19.4895509434      -11.8626240876  HEAD      184             0.0000000000
       185       185  CHL1      POLO          -33.3421881310       36.5285757748      -12.0763866267  HEAD      185             0.0000000000
       186       186  CHL1      POLO           25.0162187566      -11.3184109322      -11.9778946046  HEAD      186             0.0000000000
       187       187  CHL1      POLO           32.8395716621      -35.5938457397      -11.9970493839  HEAD      187             0.0000000000
       188       188  CHL1      POLO          -33.2525684158      -29.4467534916      -11.9811781892  HEAD      188             0.0000000000
       189       189  CHL1      POLO           11.1767940938       23.3038378004      -11.8823212787  HEAD      189             0.0000000000
       190       190  CHL1      POLO           33.9601640337        2.0770736250      -12.0083590074  HEAD      190             0.0000000000
       191       191  CHL1      POLO          -27.1017047669      -44.6563144301      -12.0490347523  HEAD      191             0.0000000000
       192       192  CHL1      POLO          -44.0292401782       45.9908800893      -11.9849099294  HEAD      192             0.0000000000
       193       193  CHL1      POLO           -3.7854891539       37.9323300461      -12.0055583762  HEAD      193             0.0000000000
       194       194  CHL1      POLO           32.1964074479       31.2661884882      -11.9546821772  HEAD      194             0.0000000000
       195       195  CHL1      POLO           52.2382550544      -45.8704156911      -12.0224090466  HEAD      195             0.0000000000
       196       196  CHL1      POLO          -14.9451491851      -17.0695126169      -11.9808368480  HEAD      196             0.0000000000
       197       197  CHL1      POLO            6.2996770773      -52.6819480646      -11.7693315890  HEAD      197             0.0000000000
       198       198  CHL1      POLO          -21.0014648605      -24.1106048282      -11.9714220037  HEAD      198             0.0000000000
       199       199  CHL1      POLO           28.1262753307       47.5925579336      -12.0256532824  HEAD      199             0.0000000000
       200       200  CHL1      POLO           20.7195575193      -48.2858889681      -11.8401836024  HEAD      200             0.0000000000
       201       201  CHL1      POLO          -28.0600525852       20.8863116597      -12.0541626945  HEAD      201             0.0000000000
       202       202  CHL1      POLO           18.6622024172      -40.4330757133      -12.0234385627  HEAD      202             0.0000000000
       203       203  CHL1      POLO           49.2537476061      -38.1767477076      -11.7747618058  HEAD      203             0.0000000000
       204       204  CHL1      POLO          -10.4669004270      -47.7990700384      -12.0276307766  HEAD      204             0.0000000000
       205       205  CHL1      POLO          -25.3393213923       35.0698929880      -12.1327701186  HEAD      205             0.0000000000
       206       206  CHL1      POLO          -16.1247601068      -32.3969295030      -11.9274484154  HEAD      206             0.0000000000
       207       207  CHL1      POLO            2.1397193560      -37.1922537419      -11.9110628875  HEAD      207             0.0000000000
       208       208  CHL1      POLO          -41.3677409029       38.1290422658      -12.0408296870  HEAD      208             0.0000000000
       209       209  POPC      POLO           22.9045477914      -26.2285544025      -12.0477296643  HEAD      209             0.0000000000
       210       210  POPC      POLO           10.4341870646      -39.4895979831      -11.9439386983  HEAD      210             0.0000000000
       211       211  POPC      POLO          -50.8185861891       -3.6533442537      -12.0776226495  HEAD      211             0.0000000000
       212       212  POPC      POLO          -27.9264665720       42.9293270609      -11.8739247963  HEAD      212             0.0000000000
       213       213  POPC      POLO           12.7631568753      -16.0941597327      -12.0778650464  HEAD      213             0.0000000000
       214       214  POPC      POLO          -46.9364120246       31.9988425608      -11.9842099646  HEAD      214             0.0000000000
       215       215  POPC      POLO           36.6291715913       -5.7990168611      -12.0359810921  HEAD      215             0.0000000000
       216       216  POPC      POLO           26.7136108067      -42.1644128410      -11.9534183761  HEAD      216             0.0000000000
       217       217  POPC      POLO           44.0867824423      -44.4301538069      -11.9957843232  HEAD      217             0.0000000000
       218       218  POPC      POLO           47.8540170915        6.0546252308      -11.9110253296  HEAD      218             0.0000000000
       219       219  POPC      POLO           33.6461279175       53.0635735596      -12.0917339998  HEAD      219             0.0000000000
       220       220  POPC      POLO           15.1212031739      -24.2403608131      -12.0458108700  HEAD      220             0.0000000000
       221       221  POPC      POLO          -22.7348072250       -3.0474967229      -11.6213253012  HEAD      221             0.0000000000
       222       222  POPC      POLO          -19.9778289618       41.6661082980      -11.9877547480  HEAD      222             0.0000000000
       223       223  POPC      POLO          -44.0222293910      -41.6092615575      -12.0380996333  HEAD      223             0.0000000000
       224       224  POPC      POLO           28.0728240654       17.7405419166      -11.9637662615  HEAD      224             0.0000000000
       225       225  POPC      POLO          -35.7325814021      -43.2069100439      -11.9948158911  HEAD      225             0.0000000000
       226       226  POPC      POLO          -18.8847483639      -46.1950309007      -12.0002758502  HEAD      226             0.0000000000
       227       227  POPC      POLO          -13.8741760913       47.7121743630      -11.8882091606  HEAD      227             0.0000000000
       228       228  POPC      POLO           41.8583059596       51.4519091266      -11.9773797670  HEAD      228             0.0000000000
       229       229  POPC      POLO           -8.1359904631       53.8091740327      -11.9768570176  HEAD      229             0.0000000000
       230       230  POPC      POLO           32.8634014558      -13.0129684975      -12.0098953571  HEAD      230             0.0000000000
       231       231  POPC      POLO          -31.0696655052        7.1132233630      -11.9889655556  HEAD      231             0.0000000000
       232       232  POPC      POLO          -50.1533237478      -25.7322525527      -11.8549800961  HEAD      232             0.0000000000
       233       233  POPC      POLO          -35.7979980830       44.5800474912      -12.0330663593  HEAD      233             0.0000000000
       234       234  POPC      POLO          -24.6526454921      -52.4484382172      -12.0451176658  HEAD      234             0.0000000000
       235       235  POPC      POLO           48.5472631250      -16.2070745528      -12.1125652452  HEAD      235             0.0000000000
       236       236  POPC      POLO           42.2630726912        0.1577011121      -11.9691224759  HEAD      236             0.0000000000
       237       237  POPC      POLO          -28.8356065509      -22.9029302557      -11.9788633317  HEAD      237             0.0000000000
       238       238  POPC      POLO          -50.2025641153       18.0085764697      -12.0930948857  HEAD      238             0.0000000000
       239       239  POPC      POLO           -7.0348970166      -34.6398309110      -12.1411853552  HEAD      239             0.0000000000
       240       240  POPC      POLO           22.4426028265       53.3302385694      -12.0343591826  HEAD      240             0.0000000000
       241       241  POPC      POLO           40.6731154053      -14.4238812871      -11.8626336152  HEAD      241             0.0000000000
       242       242  POPC      POLO          -30.0267953403       -0.8794089060      -11.9877694633  HEAD      242             0.0000000000
       243       243  POPC      POLO           49.6224649126       49.3783880584      -11.9002171339  HEAD      243             0.0000000000
       244       244  POPC      POLO          -19.8426161292       19.2791490934      -12.0204897431  HEAD      244             0.0000000000
       245       245  POPC      POLO            2.1845003474       44.0671051925      -12.0959498427  HEAD      245             0.0000000000
       246       246  POPC      POLO           51.3881735691      -24.2909818131      -11.9192427912  HEAD      246             0.0000000000
       247       247  POPC      POLO          -10.6217453925       17.2684250051      -12.0835037906  HEAD      247             0.0000000000
       248       248  POPC      POLO          -47.7956856997        9.9946996418      -11.8834068432  HEAD      248             0.0000000000
       249       249  POPC      POLO          -11.9448563241       39.9482066472      -11.8916349844  HEAD      249             0.0000000000
       250       250  POPC      POLO           31.2253172802       10.1132517611      -12.0933016355  HEAD      250             0.0000000000
       251       251  POPC      POLO          -16.8633237742       11.9465028062      -11.9542033739  HEAD      251             0.0000000000
       252       252  POPC      POLO           -9.9925877819       32.1146678907      -11.9381387013  HEAD      252             0.0000000000
       253       253  POPC      POLO          -36.8236428399      -21.5454119639      -12.0157490499  HEAD      253             0.0000000000
       254       254  POPC      POLO           34.2812976573       23.1996980076      -12.0159867811  HEAD      254             0.0000000000
       255       255  POPC      POLO          -13.2707461187      -24.8311517693      -11.9871202042  HEAD      255             0.0000000000
       256       256  POPC      POLO           17.4002909126       46.5705748353      -11.9483786223  HEAD      256             0.0000000000
       257       257  POPC      POLO          -39.3438696491        8.5719862608      -12.0476887445  HEAD      257             0.0000000000
       258       258  POPC      POLO           18.9168968412       19.4317065309      -11.9834303465  HEAD      258             0.0000000000
       259       259  POPC      POLO          -45.3313437019        2.3623230586      -12.2068401903  HEAD      259             0.0000000000
       260       260  POPC      POLO          -22.0508716037       49.4285179230      -12.0608202745  HEAD      260             0.0000000000
       261       261  POPC      POLO           34.9175494702      -43.3905740377      -11.8984984323  HEAD      261             0.0000000000
       262       262  POPC      POLO          -13.8477661313       24.8279879721      -11.9654323919  HEAD      262             0.0000000000
       263       263  POPC      POLO           -4.3591047812       21.8236224964      -11.9527158584  HEAD      263             0.0000000000
       264       264  POPC      POLO            4.8037780187       28.4256174845      -11.9527921096  HEAD      264             0.0000000000
       265       265  POPC      POLO           12.5056304273      -47.1486861065      -11.9663331755  HEAD      265             0.0000000000
       266       266  POPC      POLO           10.2707074162       41.4118346360      -12.1787948864  HEAD      266             0.0000000000
       267       267  POPC      POLO           22.3240035523       11.8468962993      -12.0767142192  HEAD      267             0.0000000000
       268       268  POPC      POLO           54.4167825113       33.5570585533      -11.8411209186  HEAD      268             0.0000000000
       269       269  POPC      POLO           24.6970843400      -34.3570526095      -11.9254143484  HEAD      269             0.0000000000
       270       270  POPC      POLO          -42.8013085828       -5.4584588074      -12.0649052080  HEAD      270             0.0000000000
       271       271  POPC      POLO          -17.6080437194       33.5836031909      -12.0252686706  HEAD      271             0.0000000000
       272       272  POPC      POLO           -5.7843714085       45.7192870766      -12.0838967787  HEAD      272             0.0000000000
       273       273  POPC      POLO           23.5879554184       41.5420434528      -11.9269886953  HEAD      273             0.0000000000
       274       274  POPC      POLO           40.7951249043      -37.0626568729      -11.9527283384  HEAD      274             0.0000000000
       275       275  POPC      POLO           36.3268495881       45.4016132725      -12.0849158898  HEAD      275             0.0000000000
       276       276  POPC      POLO           17.4025061984       -9.4859288803      -11.9439709044  HEAD      276             0.0000000000
       277       277  POPC      POLO          -22.4803845392       27.0298671711      -11.9641063381  HEAD      277             0.0000000000
       278       278  POPC      POLO           45.2066959756       13.8614535668      -12.0343999369  HEAD      278             0.0000000000
       279       279  POPC      POLO          -27.1408452468       -9.4497247599      -12.0717171782  HEAD      279             0.0000000000
       280       280  POPC      POLO            8.8767126895      -31.6427256529      -12.0334772995  HEAD      280             0.0000000000
       281       281  POPC      POLO           51.1094540669       19.8282951948      -11.9435072901  HEAD      281             0.0000000000
       282       282  POPC      POLO           44.0928684633       43.5620395978      -12.0752134356  HEAD      282             0.0000000000
       283       283  POPC      POLO           24.4835522372       33.4542202793      -11.9374759441  HEAD      283             0.0000000000
       284       284  POPC      POLO          -30.8244819112       28.7471170090      -12.0340812466  HEAD      284             0.0000000000
       285       285  POPE      POLO          -52.9424230571      -17.8726258058      -11.9110956325  HEAD      285             0.0000000000
       286       286  POPE      POLO          -41.0857445492      -49.4143754524      -11.9851410584  HEAD      286             0.0000000000
       287       287  POPE      POLO          -40.1920705100      -13.4020781724      -11.8121680819  HEAD      287             0.0000000000
       288       288  POPE      POLO           -2.7724588952       29.6659850734      -11.9632062321  HEAD      288             0.0000000000
       289       289  POPE      POLO           54.5733942742      -31.9485902243      -11.9812062556  HEAD      289             0.0000000000
       290       290  POPE      POLO            0.2273791903       51.6229397267      -11.9741466330  HEAD      290             0.0000000000
       291       291  POPE      POLO           25.8326422715        4.0748640237      -12.0056483874  HEAD      291             0.0000000000
       292       292  POPE      POLO          -25.3593688746       13.2071959148      -11.9676204229  HEAD      292             0.0000000000
       293       293  POPE      POLO           20.6155802302       -2.2958415655      -12.0286513437  HEAD      293             0.0000000000
       294       294  POPE      POLO           17.3355108276        5.5998424899      -11.9705184425  HEAD      294             0.0000000000
       295       295  POPE      POLO          -52.0562648466       47.6824575868      -12.0218921838  HEAD      295             0.0000000000
       296       296  POPE      POLO           53.2914468929       -9.8121584242      -11.9867512684  HEAD      296             0.0000000000
       297       297  POPE      POLO           30.6402375274      -27.6826999497      -12.0427060929  HEAD      297             0.0000000000
       298       298  POPE      POLO          -39.0170311930       30.4294905059      -11.8885812304  HEAD      298             0.0000000000
       299       299  POPE      POLO          -31.8659461821      -15.5626619719      -12.0409657343  HEAD      299             0.0000000000
       300       300  POPE      POLO           46.9631052184      -51.9986960009      -11.9245767192  HEAD      300             0.0000000000
       301       301  POPE      POLO           40.2504605700       29.3823365676      -12.1402990282  HEAD      301             0.0000000000
       302       302  POPE      POLO           31.0522488040       39.3912451975      -12.0264849919  HEAD      302             0.0000000000
       303       303  POPE      POLO           25.8392810427       25.4564910077      -12.0621694527  HEAD      303             0.0000000000
       304       304  POPE      POLO           38.4685606024      -28.9624917225      -11.9106037629  HEAD      304             0.0000000000
       305       305  POPE      POLO           16.7505291660      -32.3855422503      -12.0520623328  HEAD      305             0.0000000000
       306       306  POPE      POLO          -21.4624071446      -38.4734973059      -12.0344330813  HEAD      306             0.0000000000
       307       307  POPE      POLO          -46.5215727584       53.9359660241      -12.1305739919  HEAD      307             0.0000000000
       308       308  POPE      POLO           38.8506993753       37.3939876711      -12.0967882000  HEAD      308             0.0000000000
       309       309  POPE      POLO            4.1636629985       36.2401153657      -11.9941842731  HEAD      309             0.0000000000
       310       310  POPE      POLO          -48.2249981574      -11.5154016261      -12.0036309644  HEAD      310             0.0000000000
       311       311  POPE      POLO           52.0445607699       41.4100293805      -11.8605645388  HEAD      311             0.0000000000
       312       312  POPE      POLO          -44.9115707882      -19.6420846619      -11.9828014580  HEAD      312             0.0000000000
       313       313  POPE      POLO          -22.7850872254        5.1813572870      -11.9300679542  HEAD      313             0.0000000000
       314       314  POPE      POLO            4.1310544545      -44.8655221413      -12.0789327940  HEAD      314             0.0000000000
       315       315  POPE      POLO           45.3243179232       -7.6870925391      -12.0645760986  HEAD      315             0.0000000000
       316       316  POPE      POLO           28.8556825274       -4.2202885016      -12.0116443706  HEAD      316             0.0000000000
       317       317  POPE      POLO           46.4358845883       35.4864416953      -12.0089514159  HEAD      317             0.0000000000
       318       318  POPE      POLO          -33.0534675049      -50.8020170745      -11.9321565960  HEAD      318             0.0000000000
       319       319  POPE      POLO           39.5434509563        7.9265396089      -12.0068507342  HEAD      319             0.0000000000
       320       320  POPE      POLO          -49.3529644677      -47.7721984697      -12.0147388021  HEAD      320             0.0000000000
       321       321  POPE      POLO          -41.9816951554      -27.4570087316      -12.0423329496  HEAD      321             0.0000000000
       322       322  POPE      POLO           -2.3190755495      -50.1580931703      -12.0662128154  HEAD      322             0.0000000000
       323       323  POPE      POLO          -24.9389289194      -31.0160866601      -11.8695526664  HEAD      323             0.0000000000
       324       324  POPE      POLO           43.3536936984      -22.5174067232      -12.0257615441  HEAD      324             0.0000000000
       325       325  POPE      POLO          -46.8823380725      -33.5822718761      -12.0080273676  HEAD      325             0.0000000000
       326       326  POPE      POLO           -4.2506942991      -42.2190432579      -11.9897666671  HEAD      326             0.0000000000
       327       327  POPE      POLO           20.3445233419      -17.9906794551      -11.9770678382  HEAD      327             0.0000000000
       328       328  POPE      POLO          -52.0575191767      -39.9067083303      -11.9601473710  HEAD      328             0.0000000000
       329       329  POPE      POLO           48.6527817378       27.6681360410      -11.9517421064  HEAD      329             0.0000000000
       330       330  POPE      POLO          -34.8656928589       -7.3782835657      -12.1038066526  HEAD      330             0.0000000000
       331       331  POPE      POLO           14.5440484013       54.6250037530      -11.9006102339  HEAD      331             0.0000000000
       332       332  POPE      POLO          -38.1641196944       52.5261962092      -11.9998162185  HEAD      332             0.0000000000
       333       333  POPE      POLO           50.7531260925       -1.6677775547      -11.9745622640  HEAD      333             0.0000000000
       334       334  POPE      POLO           42.6022830862       21.7215232116      -11.9942023868  HEAD      334             0.0000000000
       335       335  POPE      POLO           38.6621194250      -50.3713255909      -12.1335779130  HEAD      335             0.0000000000
       336       336  POPE      POLO          -36.2805227718       22.5405364888      -11.9835357522  HEAD      336             0.0000000000
       337       337  POPE      POLO           53.3965515950       12.0281069927      -11.9085839201  HEAD      337             0.0000000000
       338       338  POPE      POLO           17.0113118069       37.6377437519      -11.9006568995  HEAD      338             0.0000000000
       339       339  POPE      POLO          -44.4802922542       24.0220694861      -11.9140724519  HEAD      339             0.0000000000
       340       340  POPE      POLO           28.9971297853      -49.9854672099      -11.8824699116  HEAD      340             0.0000000000
       341       341  POPE      POLO           46.3790745201      -30.6487016679      -11.8139634781  HEAD      341             0.0000000000
       342       342  POPE      POLO            7.3550835837      -24.0337938921      -11.9922760076  HEAD      342             0.0000000000
       343       343  POPE      POLO           35.5819236626      -20.9888903287      -11.8448281077  HEAD      343             0.0000000000
       344       344  POPE      POLO           18.1211201329       27.9716117907      -11.9583509344  HEAD      344             0.0000000000
       345       345  POPE      POLO           -7.3073997214      -18.3132634013      -11.8477279238  HEAD      345             0.0000000000
       346       346  POPE      POLO          -23.4567986196      -16.6447154307      -12.0457985271  HEAD      346             0.0000000000
       347       347  POPE      POLO          -38.7685439136      -35.4263401051      -12.0286917213  HEAD      347             0.0000000000
       348       348  POPE      POLO          -41.9666543092       16.1250319245      -11.9818714862  HEAD      348             0.0000000000
       349       349  POPE      POLO          -29.9992545199       50.9227977206      -12.0201566395  HEAD      349             0.0000000000
       350       350  POPE      POLO          -33.6774694935       14.8400413643      -11.9752938310  HEAD      350             0.0000000000
       351       351  POPE      POLO          -37.5889755725        0.6745410250      -12.1106054443  HEAD      351             0.0000000000
       352       352  POPE      POLO          -12.9970047255      -40.1565160386      -12.0220978778  HEAD      352             0.0000000000
       353       353  POPE      POLO            1.3479672243      -29.4418097678      -12.0290249390  HEAD      353             0.0000000000
       354       354  POPE      POLO          -54.5542287610      -54.0178894614      -12.0544360750  HEAD      354             0.0000000000
       355       355  POPE      POLO            0.0631018726      -21.1577357181      -12.0533925895  HEAD      355             0.0000000000
       356       356  POPE      POLO          -49.4230837595       39.6911207173      -11.9959551816  HEAD      356             0.0000000000
       357       357  POPE      POLO            8.4913651999       49.1204273283      -11.9585091567  HEAD      357             0.0000000000
       358       358  POPE      POLO          -30.0350334973      -37.0636904716      -11.9000001035  HEAD      358             0.0000000000
       359       359  POPE      POLO           11.3030616068       32.4266494739      -12.0985746606  HEAD      359             0.0000000000
       360       360  POPE      POLO          -53.4556982613        4.2989466130      -11.9348285863  HEAD      360             0.0000000000
