* GENERATED BY CHARMM-GUI (HTTP://WWW.CHARMM-GUI.ORG) V3.7 ON FEB, 08. 2026. JOB
* GET A DIFFERENT CONFORMATION FOR LIPIDS PENETRATING PROTEIN / CHOL
*  DATE:     2/ 8/26      2:11:33      CREATED BY USER: charmm-gui
*
       348  EXT
         1         1  TIP3      OH2            43.9661557696       28.2959920236       19.0410150000  TIP3      1               0.0000000000
         2         1  TIP3      H1             43.2658183972       28.9297941934       18.8858950000  TIP3      1               0.0000000000
         3         1  TIP3      H2             43.6305357735       27.7335513883       19.7390550000  TIP3      1               0.0000000000
         4         2  TIP3      OH2            39.2086057551       28.5905999286       19.2732050000  TIP3      2               0.0000000000
         5         2  TIP3      H1             38.9406070835       27.7014363246       19.0412350000  TIP3      2               0.0000000000
         6         2  TIP3      H2             38.9424509233       28.6907188014       20.1871850000  TIP3      2               0.0000000000
         7         3  TIP3      OH2            23.8151521335      -33.0891695883       19.6843500000  TIP3      3               0.0000000000
         8         3  TIP3      H1             23.2628642580      -33.0776057028       20.4660700000  TIP3      3               0.0000000000
         9         3  TIP3      H2             23.1971039164      -33.0729071201       18.9536100000  TIP3      3               0.0000000000
        10         4  TIP3      OH2           -22.8314244075       27.2910646501       21.7566550000  TIP3      4             -23.4000000000
        11         4  TIP3      H1            -23.0321832771       28.0727752613       21.2420150000  TIP3      4             -24.3000000000
        12         4  TIP3      H2            -22.9636713247       26.5632874209       21.1491250000  TIP3      4             -22.8500000000
        13         5  TIP3      OH2           -20.8470566824       27.6285429958       19.7162450000  TIP3      5               0.0000000000
        14         5  TIP3      H1            -20.7368532887       28.5511195635       19.4861150000  TIP3      5               0.0000000000
        15         5  TIP3      H2            -20.7941894519       27.6116079569       20.6718350000  TIP3      5               0.0000000000
        16         6  TIP3      OH2           -22.5494439197       25.4288120484       19.6017050000  TIP3      6               0.0000000000
        17         6  TIP3      H1            -23.0727520970       26.1489189041       19.2497950000  TIP3      6               0.0000000000
        18         6  TIP3      H2            -21.6625177952       25.7837333154       19.6618250000  TIP3      6               0.0000000000
        19         7  TIP3      OH2           -23.2018285784       18.4561941882       21.6686800000  TIP3      7               0.0000000000
        20         7  TIP3      H1            -22.9754984258       17.8560594288       22.3792000000  TIP3      7               0.0000000000
        21         7  TIP3      H2            -22.8142764155       18.0607080317       20.8878900000  TIP3      7               0.0000000000
        22         8  TIP3      OH2           -21.6462512380       18.2276810307       18.7179700000  TIP3      8               0.0000000000
        23         8  TIP3      H1            -22.5452470480       17.9471666973       18.5466500000  TIP3      8               0.0000000000
        24         8  TIP3      H2            -21.6891921885       19.1839161482       18.7184000000  TIP3      8               0.0000000000
        25         9  TIP3      OH2           -25.3934772834       16.3430739458       21.0307300000  TIP3      9               0.0000000000
        26         9  TIP3      H1            -25.3925665005       17.0955429895       21.6223500000  TIP3      9               0.0000000000
        27         9  TIP3      H2            -26.0206639938       15.7331590986       21.4191600000  TIP3      9               0.0000000000
        28        10  TIP3      OH2           -24.6552000187       20.7720161080       18.0849600000  TIP3      10              0.0000000000
        29        10  TIP3      H1            -24.6411771302       19.8329625473       18.2699300000  TIP3      10              0.0000000000
        30        10  TIP3      H2            -23.7671043856       21.0689641916       18.2833000000  TIP3      10              0.0000000000
        31        11  TIP3      OH2            43.5554958380      -38.1698544202       21.5195150000  TIP3      11              0.0000000000
        32        11  TIP3      H1             43.2646809419      -38.9785225046       21.9410650000  TIP3      11              0.0000000000
        33        11  TIP3      H2             44.1161200591      -38.4620580917       20.8007950000  TIP3      11              0.0000000000
        34        12  TIP3      OH2            40.0228882138      -38.0294972950       20.4706850000  TIP3      12            -32.9800000000
        35        12  TIP3      H1             39.9028772321      -37.8367600522       21.4005650000  TIP3      12            -32.1900000000
        36        12  TIP3      H2             40.2506593296      -38.9588704626       20.4456750000  TIP3      12            -33.6700000000
        37        13  TIP3      OH2            44.8875629533      -38.9122241965       19.0696350000  TIP3      13              0.0000000000
        38        13  TIP3      H1             44.1919035992      -38.4264320625       18.6265850000  TIP3      13              0.0000000000
        39        13  TIP3      H2             45.4463712271      -39.2311887225       18.3609650000  TIP3      13              0.0000000000
        40        14  TIP3      OH2            44.3415144178      -35.4945585292       20.4756550000  TIP3      14              0.0000000000
        41        14  TIP3      H1             44.2930046686      -34.9144419402       19.7158250000  TIP3      14              0.0000000000
        42        14  TIP3      H2             43.8201677396      -36.2582358728       20.2282050000  TIP3      14              0.0000000000
        43        15  TIP3      OH2            39.7064856962       14.1432614057       20.1146750000  TIP3      15              0.0000000000
        44        15  TIP3      H1             39.8709987793       14.5755849809       20.9526950000  TIP3      15              0.0000000000
        45        15  TIP3      H2             38.7562705791       14.1833264826       20.0064350000  TIP3      15              0.0000000000
        46        16  TIP3      OH2            42.8651418605       12.9325802086       21.1271550000  TIP3      16              0.0000000000
        47        16  TIP3      H1             42.4968038338       12.9674803511       20.2443550000  TIP3      16              0.0000000000
        48        16  TIP3      H2             42.6052445720       12.0743006535       21.4618750000  TIP3      16              0.0000000000
        49        17  TIP3      OH2            33.0169290317      -48.8052552149       21.4376950000  TIP3      17              0.0000000000
        50        17  TIP3      H1             33.4183349842      -49.1623660428       22.2298850000  TIP3      17              0.0000000000
        51        17  TIP3      H2             33.7166220866      -48.3036191419       21.0193250000  TIP3      17              0.0000000000
        52        18  TIP3      OH2            34.0220661791      -51.7167559027       20.9630850000  TIP3      18              0.0000000000
        53        18  TIP3      H1             34.4061023962      -51.0213233937       20.4291150000  TIP3      18              0.0000000000
        54        18  TIP3      H2             34.7745407530      -52.1816816867       21.3289650000  TIP3      18              0.0000000000
        55        19  TIP3      OH2            34.7239759013      -46.9992805677       19.6059550000  TIP3      19              0.0000000000
        56        19  TIP3      H1             33.9865835467      -46.4132402480       19.7763350000  TIP3      19              0.0000000000
        57        19  TIP3      H2             35.3262999150      -46.8449803608       20.3337150000  TIP3      19              0.0000000000
        58        20  TIP3      OH2            47.0931395631      -50.9835227725       20.3190750000  TIP3      20              0.0000000000
        59        20  TIP3      H1             46.3756651450      -51.5207282832       20.6550250000  TIP3      20              0.0000000000
        60        20  TIP3      H2             46.7322433671      -50.0977966619       20.2808350000  TIP3      20              0.0000000000
        61        21  TIP3      OH2            51.0371060380      -50.2484991477       21.3822850000  TIP3      21              0.0000000000
        62        21  TIP3      H1             50.7296174404      -50.9189426195       20.7722250000  TIP3      21              0.0000000000
        63        21  TIP3      H2             51.8834486975      -49.9733242810       21.0298350000  TIP3      21              0.0000000000
        64        22  TIP3      OH2            49.3448853456      -48.0438511270       20.1700250000  TIP3      22              0.0000000000
        65        22  TIP3      H1             49.9165757519      -48.3502511667       20.8739450000  TIP3      22              0.0000000000
        66        22  TIP3      H2             49.4712836827      -48.6785586279       19.4647550000  TIP3      22              0.0000000000
        67        23  TIP3      OH2            34.9930462878       40.5105830695       19.8302450000  TIP3      23              0.0000000000
        68        23  TIP3      H1             35.1071600569       39.7422410754       19.2709150000  TIP3      23              0.0000000000
        69        23  TIP3      H2             35.1582818408       40.1889348807       20.7165050000  TIP3      23              0.0000000000
        70        24  TIP3      OH2            35.9610429725       43.4081203294       21.3343750000  TIP3      24              0.0000000000
        71        24  TIP3      H1             36.0993417582       42.7939497460       20.6133250000  TIP3      24              0.0000000000
        72        24  TIP3      H2             35.4333512885       44.1101816423       20.9537450000  TIP3      24              0.0000000000
        73        25  TIP3      OH2            26.7680624199       28.6784617006       19.8301650000  TIP3      25              0.0000000000
        74        25  TIP3      H1             26.8532473826       27.7451726780       19.6353550000  TIP3      25              0.0000000000
        75        25  TIP3      H2             26.9028629427       28.7394926137       20.7758550000  TIP3      25              0.0000000000
        76        26  TIP3      OH2            26.0519606841       32.7688331088       20.8055550000  TIP3      26              0.0000000000
        77        26  TIP3      H1             26.2897831749       32.4929726815       19.9203650000  TIP3      26              0.0000000000
        78        26  TIP3      H2             26.3466965718       32.0522413691       21.3675650000  TIP3      26              0.0000000000
        79        27  TIP3      OH2           -50.8101226064       44.8211084744       19.5748200000  TIP3      27              0.0000000000
        80        27  TIP3      H1            -50.2261496443       45.5738286385       19.4820800000  TIP3      27              0.0000000000
        81        27  TIP3      H2            -51.6858467984       45.1766801819       19.4234900000  TIP3      27              0.0000000000
        82        28  TIP3      OH2           -52.7308540192       48.3135557912       20.1871800000  TIP3      28              0.0000000000
        83        28  TIP3      H1            -51.7845211893       48.4346485045       20.1096200000  TIP3      28              0.0000000000
        84        28  TIP3      H2            -53.1073171786       49.0493426011       19.7043300000  TIP3      28              0.0000000000
        85        29  TIP3      OH2            48.7224092863       31.4310720912       20.3214300000  TIP3      29              5.4500000000
        86        29  TIP3      H1             48.8056907921       31.5427198735       21.2684400000  TIP3      29              6.2600000000
        87        29  TIP3      H2             48.9118713373       32.2969737638       19.9601100000  TIP3      29              5.5200000000
        88        30  TIP3      OH2            48.7422595214       35.8090499637       20.6973100000  TIP3      30              0.0000000000
        89        30  TIP3      H1             49.5350321500       36.0531923456       21.1749600000  TIP3      30              0.0000000000
        90        30  TIP3      H2             48.0242222819       36.1032981414       21.2577300000  TIP3      30              0.0000000000
        91        31  TIP3      OH2            -9.4929748429       14.9874511027       20.4228000000  TIP3      31              0.0000000000
        92        31  TIP3      H1             -9.3226970272       14.7119231688       19.5220700000  TIP3      31              0.0000000000
        93        31  TIP3      H2            -10.3406726169       15.4301601752       20.3821500000  TIP3      31              0.0000000000
        94        32  TIP3      OH2           -54.1253050365       30.6600846037       21.5300950000  TIP3      32              0.0000000000
        95        32  TIP3      H1            -53.9731440459       30.2018124336       20.7036150000  TIP3      32              0.0000000000
        96        32  TIP3      H2            -54.2948677248       31.5667067317       21.2740950000  TIP3      32              0.0000000000
        97        33  TIP3      OH2           -50.7855536931       29.2336338706       19.7335950000  TIP3      33              0.0000000000
        98        33  TIP3      H1            -49.8620505378       29.0226814956       19.5961850000  TIP3      33              0.0000000000
        99        33  TIP3      H2            -50.8524552986       29.4196101801       20.6701650000  TIP3      33              0.0000000000
       100        34  TIP3      OH2            18.8243148021      -41.0449851045       22.0343600000  TIP3      34              0.0000000000
       101        34  TIP3      H1             18.6072836239      -40.1682232747       21.7174700000  TIP3      34              0.0000000000
       102        34  TIP3      H2             18.1824617201      -41.6176396289       21.6144500000  TIP3      34              0.0000000000
       103        35  TIP3      OH2            16.7803170339      -39.6699649281       18.5434600000  TIP3      35              0.0000000000
       104        35  TIP3      H1             17.1694096010      -39.1822155047       17.8175500000  TIP3      35              0.0000000000
       105        35  TIP3      H2             17.2673127324      -39.3809037189       19.3151500000  TIP3      35              0.0000000000
       106        36  TIP3      OH2            22.2490695486      -41.8361649693       20.0271300000  TIP3      36              0.0000000000
       107        36  TIP3      H1             21.8971776667      -42.2602507365       20.8097900000  TIP3      36              0.0000000000
       108        36  TIP3      H2             21.4765457423      -41.6066935542       19.5106300000  TIP3      36              0.0000000000
       109        37  TIP3      OH2            18.3138365570      -38.6356799254       20.4620600000  TIP3      37              0.0000000000
       110        37  TIP3      H1             17.9059697417      -37.9379717602       20.9749700000  TIP3      37              0.0000000000
       111        37  TIP3      H2             19.1054527723      -38.2367070479       20.1009600000  TIP3      37              0.0000000000
       112        38  TIP3      OH2           -39.7501032588      -41.0186184052       19.7207550000  TIP3      38              0.0000000000
       113        38  TIP3      H1            -39.0811336388      -40.5702649416       19.2033550000  TIP3      38              0.0000000000
       114        38  TIP3      H2            -39.3237936295      -41.2005837615       20.5582350000  TIP3      38              0.0000000000
       115        39  TIP3      OH2            -2.0606755844      -39.3308061079       20.0276500000  TIP3      39              5.4100000000
       116        39  TIP3      H1             -1.9823561366      -38.4512489551       19.6582200000  TIP3      39              5.3000000000
       117        39  TIP3      H2             -2.9941474566      -39.4303120485       20.2146400000  TIP3      39              5.4800000000
       118        40  TIP3      OH2            -4.5450118065      -34.8107889992       19.0258900000  TIP3      40              0.0000000000
       119        40  TIP3      H1             -5.2951528202      -34.2557253808       18.8127500000  TIP3      40              0.0000000000
       120        40  TIP3      H2             -4.8748590431      -35.4150179645       19.6909700000  TIP3      40              0.0000000000
       121        41  TIP3      OH2             2.9378009128      -37.3237846460       17.2440600000  TIP3      41              0.0000000000
       122        41  TIP3      H1              2.7198656485      -37.1166450498       18.1528100000  TIP3      41              0.0000000000
       123        41  TIP3      H2              2.3042587806      -36.8271834687       16.7261400000  TIP3      41              0.0000000000
       124        42  TIP3      OH2           -14.3455842536      -28.9451912290       19.9734200000  TIP3      42              0.0000000000
       125        42  TIP3      H1            -14.3321645985      -29.8512383117       19.6650000000  TIP3      42              0.0000000000
       126        42  TIP3      H2            -15.1034702451      -28.5547454857       19.5382200000  TIP3      42              0.0000000000
       127        43  TIP3      OH2           -19.1673792238      -26.4484334879       19.4502600000  TIP3      43            -36.6800000000
       128        43  TIP3      H1            -19.2255466525      -25.5329846630       19.7237300000  TIP3      43            -36.8500000000
       129        43  TIP3      H2            -20.0180683587      -26.6347362371       19.0529500000  TIP3      43            -36.6400000000
       130        44  TIP3      OH2           -16.9502312431      -33.2190017605       19.7636250000  TIP3      44              0.0000000000
       131        44  TIP3      H1            -17.6164042780      -32.9468261885       20.3947850000  TIP3      44              0.0000000000
       132        44  TIP3      H2            -17.2360073980      -34.0844904540       19.4712650000  TIP3      44              0.0000000000
       133        45  TIP3      OH2           -18.8105541178      -37.4166542410       19.9691450000  TIP3      45              0.0000000000
       134        45  TIP3      H1            -19.2270162508      -36.7051087890       20.4554450000  TIP3      45              0.0000000000
       135        45  TIP3      H2            -18.6028947166      -38.0726956742       20.6345250000  TIP3      45              0.0000000000
       136        46  TIP3      OH2           -52.1049638205        2.7366151964       20.3786200000  TIP3      46              0.0000000000
       137        46  TIP3      H1            -51.2218629234        2.9824133598       20.6542000000  TIP3      46              0.0000000000
       138        46  TIP3      H2            -52.5051743175        2.3608018248       21.1627300000  TIP3      46              0.0000000000
       139        47  TIP3      OH2           -10.8807805054      -34.1024689362       20.0587200000  TIP3      47              0.0000000000
       140        47  TIP3      H1            -10.5037597599      -33.3858703874       19.5482600000  TIP3      47              0.0000000000
       141        47  TIP3      H2            -11.3925228717      -33.6678221139       20.7409500000  TIP3      47              0.0000000000
       142        48  TIP3      OH2             0.1080159166       49.0163342959       20.5051300000  TIP3      48              0.0000000000
       143        48  TIP3      H1              0.6153357201       48.3703549530       20.9966500000  TIP3      48              0.0000000000
       144        48  TIP3      H2              0.1219312776       48.6964808314       19.6030600000  TIP3      48              0.0000000000
       145        49  TIP3      OH2            -0.1108467278       46.7836786874       18.6748600000  TIP3      49              0.0000000000
       146        49  TIP3      H1             -0.5215454047       46.1540867757       18.0822600000  TIP3      49              0.0000000000
       147        49  TIP3      H2              0.3745355640       46.2443030428       19.2991400000  TIP3      49              0.0000000000
       148        50  TIP3      OH2           -20.4354178481      -14.7014973853       19.1202300000  TIP3      50              0.0000000000
       149        50  TIP3      H1            -19.5433360359      -14.8665449023       19.4254800000  TIP3      50              0.0000000000
       150        50  TIP3      H2            -20.9575475039      -15.3990945702       19.5164100000  TIP3      50              0.0000000000
       151        51  TIP3      OH2            17.5613630629       42.3364878228       19.8235050000  TIP3      51              0.0000000000
       152        51  TIP3      H1             17.7328047381       42.4971976115       20.7514150000  TIP3      51              0.0000000000
       153        51  TIP3      H2             18.2225982944       42.8541242335       19.3641150000  TIP3      51              0.0000000000
       154        52  TIP3      OH2            20.3779346527       44.3651809600       21.5800250000  TIP3      52              0.0000000000
       155        52  TIP3      H1             20.0348675687       43.4904558055       21.7627550000  TIP3      52              0.0000000000
       156        52  TIP3      H2             21.3219962688       44.2861151275       21.7168450000  TIP3      52              0.0000000000
       157        53  TIP3      OH2            34.4475305322       32.5243170012       20.3905950000  TIP3      53              0.0000000000
       158        53  TIP3      H1             33.6674091058       32.7964668109       20.8738950000  TIP3      53              0.0000000000
       159        53  TIP3      H2             34.8886529170       31.9074782961       20.9746750000  TIP3      53              0.0000000000
       160        54  TIP3      OH2            34.9648477835       37.0556934377       19.8822450000  TIP3      54              0.0000000000
       161        54  TIP3      H1             34.1736903833       37.4972114879       20.1910550000  TIP3      54              0.0000000000
       162        54  TIP3      H2             34.6435129379       36.3648620552       19.3028250000  TIP3      54              0.0000000000
       163        55  TIP3      OH2            36.5464819285       34.8397220345       20.8211350000  TIP3      55              0.0000000000
       164        55  TIP3      H1             35.7923382337       34.9738789551       20.2471050000  TIP3      55              0.0000000000
       165        55  TIP3      H2             36.1807155835       34.4334789397       21.6068950000  TIP3      55              0.0000000000
       166        56  TIP3      OH2            48.2553508617       -9.9395037556       20.3109850000  TIP3      56              0.0000000000
       167        56  TIP3      H1             48.1139887196       -9.4168617155       21.1003450000  TIP3      56              0.0000000000
       168        56  TIP3      H2             48.6148331715       -9.3211163604       19.6748950000  TIP3      56              0.0000000000
       169        57  TIP3      OH2            51.5417809180       -6.0945752772       20.1584550000  TIP3      57              0.0000000000
       170        57  TIP3      H1             51.3046561801       -6.6805643642       20.8772250000  TIP3      57              0.0000000000
       171        57  TIP3      H2             51.3918872491       -5.2154442225       20.5061450000  TIP3      57              0.0000000000
       172        58  TIP3      OH2           -12.0382456186       52.1385814115       19.7491800000  TIP3      58              0.0000000000
       173        58  TIP3      H1            -11.2764528840       52.5126644430       19.3064800000  TIP3      58              0.0000000000
       174        58  TIP3      H2            -12.3785038118       52.8536923423       20.2868200000  TIP3      58              0.0000000000
       175        59  TIP3      OH2            -9.1813701303       50.9126996266       20.3887000000  TIP3      59              0.0000000000
       176        59  TIP3      H1             -9.2313713186       51.6892211071       19.8312500000  TIP3      59              0.0000000000
       177        59  TIP3      H2             -8.4689711984       51.1012851566       20.9995700000  TIP3      59              0.0000000000
       178        60  TIP3      OH2            -8.9937688851       54.9927655401       20.2826000000  TIP3      60              0.0000000000
       179        60  TIP3      H1             -9.4529503568       54.8668414088       21.1129800000  TIP3      60              0.0000000000
       180        60  TIP3      H2             -8.2675406553       55.5785261793       20.4963800000  TIP3      60              0.0000000000
       181        61  TIP3      OH2            40.5603972469      -27.5465211548       19.9258400000  TIP3      61              0.0000000000
       182        61  TIP3      H1             41.1479792634      -28.0410705675       19.3545300000  TIP3      61              0.0000000000
       183        61  TIP3      H2             40.7764713935      -26.6295532118       19.7563900000  TIP3      61              0.0000000000
       184        62  TIP3      OH2            41.8663517108      -31.1092808190       20.1729000000  TIP3      62              0.0000000000
       185        62  TIP3      H1             42.7210624196      -31.1314756131       20.6032500000  TIP3      62              0.0000000000
       186        62  TIP3      H2             41.2349582363      -31.1613885809       20.8904300000  TIP3      62              0.0000000000
       187        63  TIP3      OH2            50.2687089427       -1.4125771622       20.6640150000  TIP3      63              0.0000000000
       188        63  TIP3      H1             50.8754256566       -1.5346082321       21.3942450000  TIP3      63              0.0000000000
       189        63  TIP3      H2             49.4031668683       -1.5656044458       21.0430050000  TIP3      63              0.0000000000
       190        64  TIP3      OH2            48.0447597341       -0.1319661816       22.0038250000  TIP3      64              0.0000000000
       191        64  TIP3      H1             47.2190517218       -0.6107707879       21.9318050000  TIP3      64              0.0000000000
       192        64  TIP3      H2             47.7860740189        0.7890526044       22.0360450000  TIP3      64              0.0000000000
       193        65  TIP3      OH2            47.3087529851        2.5614015069       18.9445950000  TIP3      65              0.0000000000
       194        65  TIP3      H1             48.0629583348        1.9762807417       18.8737150000  TIP3      65              0.0000000000
       195        65  TIP3      H2             46.7768841497        2.1835909810       19.6450250000  TIP3      65              0.0000000000
       196        66  TIP3      OH2           -47.7525210658      -49.9670031224       20.2960550000  TIP3      66              0.0000000000
       197        66  TIP3      H1            -47.5169265082      -49.0499709664       20.4367350000  TIP3      66              0.0000000000
       198        66  TIP3      H2            -48.4811211159      -50.1225115871       20.8970450000  TIP3      66              0.0000000000
       199        67  TIP3      OH2            15.0257758963      -38.0350072461       20.5540700000  TIP3      67              0.0000000000
       200        67  TIP3      H1             15.7111411646      -38.0764251783       21.2210100000  TIP3      67              0.0000000000
       201        67  TIP3      H2             15.3865283220      -38.5157051265       19.8090700000  TIP3      67              0.0000000000
       202        68  TIP3      OH2           -52.4061686668       27.6848427997      -20.7031250000  TIP3      68              0.0000000000
       203        68  TIP3      H1            -52.6726985639       28.5909038650      -20.5473650000  TIP3      68              0.0000000000
       204        68  TIP3      H2            -52.7055124846       27.2099788919      -19.9277950000  TIP3      68              0.0000000000
       205        69  TIP3      OH2           -55.5407290377       26.3245754124      -19.0794650000  TIP3      69              0.0000000000
       206        69  TIP3      H1            -56.1471026135       25.8248413088      -19.6260950000  TIP3      69              0.0000000000
       207        69  TIP3      H2            -55.9463359390       27.1877940617      -18.9984550000  TIP3      69              0.0000000000
       208        70  TIP3      OH2           -20.5307753500      -10.9471182559      -20.4403450000  TIP3      70              0.0000000000
       209        70  TIP3      H1            -19.8273731222      -10.5707954110      -19.9113450000  TIP3      70              0.0000000000
       210        70  TIP3      H2            -20.5292120162      -11.8773875343      -20.2148750000  TIP3      70              0.0000000000
       211        71  TIP3      OH2            -4.9452221858      -28.1835970216      -21.7015400000  TIP3      71              0.0000000000
       212        71  TIP3      H1             -4.5313912656      -27.4950124409      -21.1811200000  TIP3      71              0.0000000000
       213        71  TIP3      H2             -5.8388935662      -27.8719604380      -21.8446200000  TIP3      71              0.0000000000
       214        72  TIP3      OH2            35.1450886610       17.6423863020      -20.9956750000  TIP3      72              0.0000000000
       215        72  TIP3      H1             35.0620325886       18.4413897263      -21.5161750000  TIP3      72              0.0000000000
       216        72  TIP3      H2             35.8116383519       17.8506423465      -20.3410250000  TIP3      72              0.0000000000
       217        73  TIP3      OH2            37.0412488665       18.5598849332      -19.1552550000  TIP3      73              0.0000000000
       218        73  TIP3      H1             37.2262063287       19.1681491613      -18.4396950000  TIP3      73              0.0000000000
       219        73  TIP3      H2             37.2037805109       17.6936032505      -18.7819150000  TIP3      73              0.0000000000
       220        74  TIP3      OH2           -13.8506328902      -53.8332233441      -19.7122800000  TIP3      74            -26.5400000000
       221        74  TIP3      H1            -13.0949859120      -53.2548392666      -19.6088200000  TIP3      74            -26.4200000000
       222        74  TIP3      H2            -14.5465854170      -53.4112652669      -19.2084600000  TIP3      74            -26.5900000000
       223        75  TIP3      OH2           -17.8653984552      -52.5345519898      -20.4520200000  TIP3      75              0.0000000000
       224        75  TIP3      H1            -18.7197680849      -52.2155627332      -20.7427500000  TIP3      75              0.0000000000
       225        75  TIP3      H2            -17.2372262418      -51.9243390837      -20.8383800000  TIP3      75              0.0000000000
       226        76  TIP3      OH2            25.5149530387      -20.3666907671      -19.9817250000  TIP3      76             -5.2800000000
       227        76  TIP3      H1             26.1190987312      -20.7694553732      -20.6054350000  TIP3      76             -5.1500000000
       228        76  TIP3      H2             25.0584081663      -19.6955519661      -20.4890450000  TIP3      76             -4.6700000000
       229        77  TIP3      OH2            26.5314408811      -16.8220948840      -18.6131450000  TIP3      77              0.0000000000
       230        77  TIP3      H1             26.9650759105      -17.6754200782      -18.6083850000  TIP3      77              0.0000000000
       231        77  TIP3      H2             25.6339015672      -17.0074627200      -18.3369150000  TIP3      77              0.0000000000
       232        78  TIP3      OH2           -33.8328447894       33.8418455349      -20.8149850000  TIP3      78              0.0000000000
       233        78  TIP3      H1            -33.4064075164       34.6988079795      -20.8145250000  TIP3      78              0.0000000000
       234        78  TIP3      H2            -34.1883068878       33.7511470377      -21.6990950000  TIP3      78              0.0000000000
       235        79  TIP3      OH2           -32.9003232872       36.1990398322      -21.7121750000  TIP3      79              0.0000000000
       236        79  TIP3      H1            -32.9194869374       36.3414090456      -22.6585350000  TIP3      79              0.0000000000
       237        79  TIP3      H2            -32.1125502827       36.6554834097      -21.4167250000  TIP3      79              0.0000000000
       238        80  TIP3      OH2           -31.7638854308       38.8536285723      -20.6940650000  TIP3      80              0.0000000000
       239        80  TIP3      H1            -31.6588809567       39.4828854580      -21.4076750000  TIP3      80              0.0000000000
       240        80  TIP3      H2            -32.7078610418       38.8224098202      -20.5385850000  TIP3      80              0.0000000000
       241        81  TIP3      OH2           -34.3370667156       38.5050841870      -20.4710650000  TIP3      81              0.0000000000
       242        81  TIP3      H1            -34.4717408801       37.8152001295      -21.1208150000  TIP3      81              0.0000000000
       243        81  TIP3      H2            -35.2192184035       38.7366108863      -20.1805050000  TIP3      81              0.0000000000
       244        82  TIP3      OH2            34.7019348937      -35.6482931514      -20.8331750000  TIP3      82              0.0000000000
       245        82  TIP3      H1             35.0328810547      -34.8157821404      -21.1702550000  TIP3      82              0.0000000000
       246        82  TIP3      H2             34.7514871858      -36.2459756674      -21.5791850000  TIP3      82              0.0000000000
       247        83  TIP3      OH2            30.8115128269      -37.4599342401      -20.4714850000  TIP3      83              0.0000000000
       248        83  TIP3      H1             31.3627141620      -36.9394018625      -19.8871450000  TIP3      83              0.0000000000
       249        83  TIP3      H2             30.9357972950      -37.0643521314      -21.3342150000  TIP3      83              0.0000000000
       250        84  TIP3      OH2           -34.6870169875      -31.4944976675      -19.9328450000  TIP3      84              5.1400000000
       251        84  TIP3      H1            -34.8405215759      -32.3872080693      -20.2422550000  TIP3      84              6.0000000000
       252        84  TIP3      H2            -34.7060730306      -30.9589916779      -20.7260050000  TIP3      84              4.9300000000
       253        85  TIP3      OH2           -31.3184189119      -31.5941155332      -20.0902950000  TIP3      85              0.0000000000
       254        85  TIP3      H1            -31.5987355871      -30.9247182124      -19.4661550000  TIP3      85              0.0000000000
       255        85  TIP3      H2            -32.0533548659      -31.6787000267      -20.6977150000  TIP3      85              0.0000000000
       256        86  TIP3      OH2            32.2822965976        0.1532014225      -20.0109700000  TIP3      86              0.0000000000
       257        86  TIP3      H1             32.2566557610        0.7085225819      -19.2317400000  TIP3      86              0.0000000000
       258        86  TIP3      H2             33.2100249127        0.1065431524      -20.2419900000  TIP3      86              0.0000000000
       259        87  TIP3      OH2           -28.7690424995      -43.4350898189      -20.4329000000  TIP3      87              0.0000000000
       260        87  TIP3      H1            -28.3109755905      -44.1171309459      -19.9417600000  TIP3      87              0.0000000000
       261        87  TIP3      H2            -28.9168080118      -42.7376080905      -19.7942100000  TIP3      87              0.0000000000
       262        88  TIP3      OH2            -6.4967239136       36.9143267322      -19.4403800000  TIP3      88              0.0000000000
       263        88  TIP3      H1             -5.7491255148       37.4623352364      -19.6791700000  TIP3      88              0.0000000000
       264        88  TIP3      H2             -6.1870733228       36.0175017604      -19.5670900000  TIP3      88              0.0000000000
       265        89  TIP3      OH2            32.2947854771       30.1169903244      -21.4866500000  TIP3      89              0.0000000000
       266        89  TIP3      H1             33.1997804843       30.4287627393      -21.4916000000  TIP3      89              0.0000000000
       267        89  TIP3      H2             32.2908501686       29.3818705946      -22.0996800000  TIP3      89              0.0000000000
       268        90  TIP3      OH2            30.0783310921       30.5318336606      -20.1283300000  TIP3      90              0.0000000000
       269        90  TIP3      H1             30.9807860669       30.5314808462      -20.4473900000  TIP3      90              0.0000000000
       270        90  TIP3      H2             29.5833018865       30.0744626566      -20.8080200000  TIP3      90              0.0000000000
       271        91  TIP3      OH2            52.5973234717      -43.2529096544      -19.3166050000  TIP3      91             23.1300000000
       272        91  TIP3      H1             53.0061096942      -42.4712272081      -18.9449850000  TIP3      91              0.0000000000
       273        91  TIP3      H2             52.0324068087      -42.9198645892      -20.0138750000  TIP3      91              0.0000000000
       274        92  TIP3      OH2            53.4512374937      -47.3492169421      -20.7044450000  TIP3      92              0.0000000000
       275        92  TIP3      H1             53.5248732953      -46.5655975829      -20.1596950000  TIP3      92              0.0000000000
       276        92  TIP3      H2             53.4379036538      -48.0749180277      -20.0804150000  TIP3      92              0.0000000000
       277        93  TIP3      OH2           -15.8925873469      -18.9072161812      -20.5864500000  TIP3      93              0.0000000000
       278        93  TIP3      H1            -15.4771423275      -19.7236929279      -20.3089400000  TIP3      93              0.0000000000
       279        93  TIP3      H2            -15.5779736086      -18.2535401619      -19.9619800000  TIP3      93              0.0000000000
       280        94  TIP3      OH2             4.2706368723      -51.2343729777      -20.0250800000  TIP3      94              0.0000000000
       281        94  TIP3      H1              4.7652484386      -51.7817941704      -19.4152300000  TIP3      94              0.0000000000
       282        94  TIP3      H2              4.8552941376      -50.5014434133      -20.2180300000  TIP3      94              0.0000000000
       283        95  TIP3      OH2             7.2328999668      -55.5884217296      -19.4142300000  TIP3      95              0.0000000000
       284        95  TIP3      H1              7.8103892094      -55.5791267866      -20.1775500000  TIP3      95              0.0000000000
       285        95  TIP3      H2              7.3552960811      -56.4571000775      -19.0312700000  TIP3      95              0.0000000000
       286        96  TIP3      OH2           -21.9579742395      -27.0402476241      -19.5995200000  TIP3      96              0.0000000000
       287        96  TIP3      H1            -22.8675599048      -27.2754890617      -19.7826800000  TIP3      96              0.0000000000
       288        96  TIP3      H2            -21.7542415053      -26.3554881061      -20.2365700000  TIP3      96              0.0000000000
       289        97  TIP3      OH2           -18.3054540956      -24.8703964581      -19.5603900000  TIP3      97              0.0000000000
       290        97  TIP3      H1            -19.1766329913      -24.8992404760      -19.1648600000  TIP3      97              0.0000000000
       291        97  TIP3      H2            -17.9670212867      -24.0044800888      -19.3326000000  TIP3      97              0.0000000000
       292        98  TIP3      OH2           -19.4376561006      -23.8562435986      -21.7746700000  TIP3      98              0.0000000000
       293        98  TIP3      H1            -18.9023798962      -24.1197339026      -21.0261500000  TIP3      98              0.0000000000
       294        98  TIP3      H2            -20.3271191107      -24.1191263322      -21.5380500000  TIP3      98              0.0000000000
       295        99  TIP3      OH2            22.3816554322      -46.6107066523      -20.0607500000  TIP3      99              0.0000000000
       296        99  TIP3      H1             22.2665842467      -46.2629057436      -20.9450700000  TIP3      99              0.0000000000
       297        99  TIP3      H2             23.1494355662      -47.1787822461      -20.1243200000  TIP3      99              0.0000000000
       298       100  TIP3      OH2            20.6124617695      -50.3871305325      -19.9832100000  TIP3      100             0.0000000000
       299       100  TIP3      H1             21.4785634813      -50.6155353602      -19.6456800000  TIP3      100             0.0000000000
       300       100  TIP3      H2             20.4056098137      -49.5504370663      -19.5668200000  TIP3      100             0.0000000000
       301       101  TIP3      OH2           -25.2991047461       21.6484578014      -19.6393200000  TIP3      101             0.0000000000
       302       101  TIP3      H1            -24.9957566745       20.8395329766      -20.0514700000  TIP3      101             0.0000000000
       303       101  TIP3      H2            -25.8995068580       21.3575731603      -18.9529300000  TIP3      101             0.0000000000
       304       102  TIP3      OH2           -30.5324999724       16.0658668205      -16.5979600000  TIP3      102             0.0000000000
       305       102  TIP3      H1            -29.7387578664       16.0722697282      -17.1329000000  TIP3      102             0.0000000000
       306       102  TIP3      H2            -30.3133059185       15.5102909753      -15.8499500000  TIP3      102             0.0000000000
       307       103  TIP3      OH2           -28.2234377746       20.3687985477      -21.9632900000  TIP3      103             0.0000000000
       308       103  TIP3      H1            -28.4202185252       20.8775042633      -21.1766900000  TIP3      103             0.0000000000
       309       103  TIP3      H2            -29.0800111134       20.1028047746      -22.2975900000  TIP3      103             0.0000000000
       310       104  TIP3      OH2           -27.2795614229       18.0722549688      -19.2023500000  TIP3      104             0.0000000000
       311       104  TIP3      H1            -26.8240523324       18.1725534621      -20.0382200000  TIP3      104             0.0000000000
       312       104  TIP3      H2            -27.5616960671       18.9582143788      -18.9749600000  TIP3      104             0.0000000000
       313       105  TIP3      OH2            20.0203303973      -38.8840062339      -21.4337250000  TIP3      105             0.0000000000
       314       105  TIP3      H1             19.1823351216      -39.0009171178      -20.9861650000  TIP3      105             0.0000000000
       315       105  TIP3      H2             20.1222170308      -37.9351737907      -21.5083650000  TIP3      105             0.0000000000
       316       106  TIP3      OH2            21.4673044670      -40.2983598614      -19.7904750000  TIP3      106             0.0000000000
       317       106  TIP3      H1             22.2954289302      -40.2723307615      -20.2698050000  TIP3      106             0.0000000000
       318       106  TIP3      H2             20.8491118980      -39.8330747544      -20.3540050000  TIP3      106             0.0000000000
       319       107  TIP3      OH2            17.4173979955      -38.8630986394      -20.1737850000  TIP3      107             0.0000000000
       320       107  TIP3      H1             17.7322103592      -39.4112195087      -19.4549750000  TIP3      107             0.0000000000
       321       107  TIP3      H2             16.5349167734      -39.1871358113      -20.3539550000  TIP3      107             0.0000000000
       322       108  TIP3      OH2            49.6814429817      -35.2524154137      -19.6719100000  TIP3      108             0.0000000000
       323       108  TIP3      H1             50.3821574903      -34.6084170571      -19.5694400000  TIP3      108             0.0000000000
       324       108  TIP3      H2             49.0742001474      -34.8496313005      -20.2926100000  TIP3      108             0.0000000000
       325       109  TIP3      OH2            49.6646922515      -40.1493879966      -20.2820800000  TIP3      109             0.0000000000
       326       109  TIP3      H1             49.1991364236      -39.3307207974      -20.1109500000  TIP3      109             0.0000000000
       327       109  TIP3      H2             50.3348282567      -40.1914881940      -19.5999000000  TIP3      109             0.0000000000
       328       110  TIP3      OH2           -11.2612526890      -46.7841794818      -20.4983950000  TIP3      110             0.0000000000
       329       110  TIP3      H1            -11.8440502464      -47.1231979283      -21.1778550000  TIP3      110             0.0000000000
       330       110  TIP3      H2            -11.6194638621      -45.9231421642      -20.2826850000  TIP3      110             0.0000000000
       331       111  TIP3      OH2           -24.9800940014       37.2726468687      -19.9552800000  TIP3      111             0.0000000000
       332       111  TIP3      H1            -24.8335255003       37.0464283439      -20.8737400000  TIP3      111             0.0000000000
       333       111  TIP3      H2            -25.1749553297       38.2097317602      -19.9670800000  TIP3      111             0.0000000000
       334       112  TIP3      OH2           -17.5293282796      -30.1041665059      -19.6540750000  TIP3      112             0.0000000000
       335       112  TIP3      H1            -17.7742857483      -29.8868955574      -20.5535350000  TIP3      112             0.0000000000
       336       112  TIP3      H2            -17.8411154113      -29.3629998980      -19.1347450000  TIP3      112             0.0000000000
       337       113  TIP3      OH2           -13.4774489798      -33.2308579121      -19.8447750000  TIP3      113             0.0000000000
       338       113  TIP3      H1            -14.2838428031      -32.7521177721      -19.6530150000  TIP3      113             0.0000000000
       339       113  TIP3      H2            -13.7727919771      -34.0444317168      -20.2535550000  TIP3      113             0.0000000000
       340       114  TIP3      OH2            -0.7199719834      -37.3493785900      -19.1569150000  TIP3      114             0.0000000000
       341       114  TIP3      H1             -0.5709798670      -38.1012789896      -19.7302250000  TIP3      114             0.0000000000
       342       114  TIP3      H2              0.1353418286      -37.1732483338      -18.7649350000  TIP3      114             0.0000000000
       343       115  TIP3      OH2             3.5338227529      -39.5020415855      -19.8548750000  TIP3      115             0.0000000000
       344       115  TIP3      H1              4.1871742107      -39.1882464504      -19.2296650000  TIP3      115             0.0000000000
       345       115  TIP3      H2              3.7710387628      -40.4160754767      -20.0114350000  TIP3      115             0.0000000000
       346       116  TIP3      OH2           -42.6360779181       40.0092173527      -20.8215400000  TIP3      116             0.0000000000
       347       116  TIP3      H1            -43.3618750518       39.4003896055      -20.9585600000  TIP3      116             0.0000000000
       348       116  TIP3      H2            -42.2015677258       39.6904759429      -20.0304400000  TIP3      116             0.0000000000
