* GENERATED BY CHARMM-GUI (HTTP://WWW.CHARMM-GUI.ORG) V3.7 ON FEB, 08. 2026. JOB
* GENERATES ION CONFORMATION USING MONTE-CARLO SIMULATION
*  DATE:     2/ 8/26      2:16: 9      CREATED BY USER: charmm-gui
*
       215  EXT
         1         1  SOD       SOD            51.1664061914       34.4692715229       79.3185162683  IONS      1               1.0000000000
         2         2  SOD       SOD            27.4015309112       -4.3933261230      -23.4023982896  IONS      2               1.0000000000
         3         3  SOD       SOD             0.7986911650      -43.1839328000       47.4428727000  IONS      3               1.0000000000
         4         4  SOD       SOD             2.3872870900       54.4013224000       28.2365152000  IONS      4               1.0000000000
         5         5  SOD       SOD           -30.3561012000       44.6477882000       63.2898646000  IONS      5               1.0000000000
         6         6  SOD       SOD           -16.8277435982       18.5320978929      -33.3826314068  IONS      6               1.0000000000
         7         7  SOD       SOD            33.6322500000       43.9240599000       67.3523522000  IONS      7               1.0000000000
         8         8  SOD       SOD           -43.3754548000      -36.5198210000       47.2002373000  IONS      8               1.0000000000
         9         9  SOD       SOD            -1.4018701300       44.1560124000       90.0507773000  IONS      9               1.0000000000
        10        10  SOD       SOD            41.4479652000      -39.7484914000      -28.1630503000  IONS      10              1.0000000000
        11        11  SOD       SOD           -20.4462103000      -47.8695729000       55.6990232000  IONS      11              1.0000000000
        12        12  SOD       SOD           -11.4228527000       44.7110027000       40.3322461000  IONS      12              1.0000000000
        13        13  SOD       SOD            50.2465839000      -44.6081756000       52.4683371000  IONS      13              1.0000000000
        14        14  SOD       SOD           -39.4441578000       36.4023960000      -39.0987590000  IONS      14              1.0000000000
        15        15  SOD       SOD            -2.3494157300      -34.7322852000       83.3426674000  IONS      15              1.0000000000
        16        16  SOD       SOD             3.7182544900      -41.6097857000       33.6768614000  IONS      16              1.0000000000
        17        17  SOD       SOD             8.7020139800      -29.8777483000      -43.6791498000  IONS      17              1.0000000000
        18        18  SOD       SOD           -37.4800449000        6.5142156400       83.6434088000  IONS      18              1.0000000000
        19        19  SOD       SOD            46.7167597000       44.4328859000       65.9629893000  IONS      19              1.0000000000
        20        20  SOD       SOD            15.1038155000       47.6072689000      -38.0125318000  IONS      20              1.0000000000
        21        21  SOD       SOD             5.1638726600      -45.2438268000       85.4176896000  IONS      21              1.0000000000
        22        22  SOD       SOD           -20.4821387000        3.9700318900       91.0191451000  IONS      22              1.0000000000
        23        23  SOD       SOD            22.3073075000      -39.0916788000       25.7343559000  IONS      23              1.0000000000
        24        24  SOD       SOD             9.3073496200       32.3498307000       85.3739038000  IONS      24              1.0000000000
        25        25  SOD       SOD             4.0686365900      -37.8826090000       41.7947877000  IONS      25              1.0000000000
        26        26  SOD       SOD            14.4328475000       40.4014084000      -33.8867621000  IONS      26              1.0000000000
        27        27  SOD       SOD            -3.2509086100      -22.3797742000       70.1065480000  IONS      27              1.0000000000
        28        28  SOD       SOD            23.4022353629       -7.9434052608       90.7895030608  IONS      28              1.0000000000
        29        29  SOD       SOD           -22.4106680000      -44.7703774000      -44.3765604000  IONS      29              1.0000000000
        30        30  SOD       SOD           -20.3748294000      -49.1277052000      -37.9516804000  IONS      30              1.0000000000
        31        31  SOD       SOD            25.1321460000       19.6952604000       79.4426477000  IONS      31              1.0000000000
        32        32  SOD       SOD            53.3130415000       17.1808497000      -35.3770746000  IONS      32              1.0000000000
        33        33  SOD       SOD            47.5940522000      -51.1430224000       49.4406078000  IONS      33              1.0000000000
        34        34  SOD       SOD           -22.2044847000       26.8378247000       68.7787977000  IONS      34              1.0000000000
        35        35  SOD       SOD             7.7366812600        2.5754327300       65.4667141000  IONS      35              1.0000000000
        36        36  SOD       SOD            24.7027412000      -36.0142150000       68.0310574000  IONS      36              1.0000000000
        37        37  SOD       SOD           -14.8887665000      -31.3178030000      -39.2601245000  IONS      37              1.0000000000
        38        38  SOD       SOD            22.1467330000      -24.1968765000       59.9039740000  IONS      38              1.0000000000
        39        39  SOD       SOD            53.1166880000      -20.9559849000       76.9414982000  IONS      39              1.0000000000
        40        40  SOD       SOD           -21.9903474000      -27.1634761000       64.2216671000  IONS      40              1.0000000000
        41        41  SOD       SOD            37.6601330000       -9.0130236500       56.7244742000  IONS      41              1.0000000000
        42        42  SOD       SOD            -0.4939581150       49.0725404000      -37.6520641000  IONS      42              1.0000000000
        43        43  SOD       SOD           -17.6328347000      -21.2613919000      -32.8224865000  IONS      43              1.0000000000
        44        44  SOD       SOD            -9.6786124300        2.4771547300       77.2319437000  IONS      44              1.0000000000
        45        45  SOD       SOD            45.6677165055       -6.0437027392      -46.8250201500  IONS      45              1.0000000000
        46        46  SOD       SOD           -25.2008745000      -10.0027985000       71.7455644000  IONS      46              1.0000000000
        47        47  SOD       SOD           -33.8042778000       29.9527325000       75.4612110000  IONS      47              1.0000000000
        48        48  SOD       SOD            31.1884861000      -17.1833055000      -42.7975253000  IONS      48              1.0000000000
        49        49  SOD       SOD            -1.7404366100      -12.6139436000      -48.5056363000  IONS      49              1.0000000000
        50        50  SOD       SOD            14.5907076000       -9.4465320400       50.8375725000  IONS      50              1.0000000000
        51        51  SOD       SOD           -20.6194393000      -21.0041601000      -22.6760765000  IONS      51              1.0000000000
        52        52  SOD       SOD            46.5341039000      -23.9246148000      -44.3317215000  IONS      52              1.0000000000
        53        53  SOD       SOD             6.7455284891       46.6352535031      -24.3857598095  IONS      53              1.0000000000
        54        54  SOD       SOD           -33.2553942134      -42.2773303014       60.3166850148  IONS      54              1.0000000000
        55        55  SOD       SOD           -14.6981283000      -50.9487885000       73.9494811000  IONS      55              1.0000000000
        56        56  SOD       SOD            43.5195329000        4.2649206000      -42.8996036000  IONS      56              1.0000000000
        57        57  SOD       SOD           -44.8716220006      -32.0831645997       82.0346372039  IONS      57              1.0000000000
        58        58  SOD       SOD           -47.1166445000      -40.1250187000       29.6887140000  IONS      58              1.0000000000
        59        59  SOD       SOD            54.5877179000      -30.5261509000       54.6391901000  IONS      59              1.0000000000
        60        60  SOD       SOD            15.2187147000      -15.1062164000       35.7180383000  IONS      60              1.0000000000
        61        61  SOD       SOD           -36.8567375150      -11.6565694620       88.9660409837  IONS      61              1.0000000000
        62        62  SOD       SOD           -51.0299976406       -6.2357374243       76.3534383216  IONS      62              1.0000000000
        63        63  SOD       SOD           -47.1982085000        3.6917448700       79.4378876000  IONS      63              1.0000000000
        64        64  SOD       SOD            47.4361358000       12.4666958000       66.3652300000  IONS      64              1.0000000000
        65        65  SOD       SOD            41.7300372000      -52.0830674000      -37.0808841000  IONS      65              1.0000000000
        66        66  SOD       SOD           -15.2965146347      -12.6560208172      -41.1058583101  IONS      66              1.0000000000
        67        67  SOD       SOD            16.3119328000       52.8227681000      -39.5515021000  IONS      67              1.0000000000
        68        68  SOD       SOD            30.9181493000      -19.6032707000       55.5852559000  IONS      68              1.0000000000
        69        69  SOD       SOD            -7.5165914700        1.2201700500      -33.0583919000  IONS      69              1.0000000000
        70        70  SOD       SOD             9.0006726900      -46.5438684000       62.5845519000  IONS      70              1.0000000000
        71        71  SOD       SOD            21.2699385000       44.9835247000       81.0742498000  IONS      71              1.0000000000
        72        72  SOD       SOD            49.8930857000      -12.5772097000      -47.7519549000  IONS      72              1.0000000000
        73        73  SOD       SOD             2.4654611200      -17.9106758000       52.9973752000  IONS      73              1.0000000000
        74        74  SOD       SOD             3.5836257100       -6.8959832100      -39.6959773000  IONS      74              1.0000000000
        75        75  SOD       SOD             1.5336044300       36.0891523000       78.1103302000  IONS      75              1.0000000000
        76        76  SOD       SOD           -19.7143131000      -40.1482126000      -35.1818726000  IONS      76              1.0000000000
        77        77  SOD       SOD            41.7186061000       36.0177627000      -39.4438500000  IONS      77              1.0000000000
        78        78  SOD       SOD             6.4709928400       36.5721245000       32.7553127000  IONS      78              1.0000000000
        79        79  SOD       SOD            26.1313966000      -26.4696741000      -43.0013087000  IONS      79              1.0000000000
        80        80  SOD       SOD           -53.3951631859       26.7554277296      -48.5610143229  IONS      80              1.0000000000
        81        81  SOD       SOD           -27.7240526000      -43.9834737000       66.1516693000  IONS      81              1.0000000000
        82        82  SOD       SOD            22.0046598000      -51.2566379000      -25.0055603000  IONS      82              1.0000000000
        83        83  SOD       SOD            51.7324110811      -41.1225830127       49.3294638805  IONS      83              1.0000000000
        84        84  SOD       SOD           -51.3634491000      -10.9797484000      -38.6126062000  IONS      84              1.0000000000
        85        85  SOD       SOD            51.8253056000      -26.1234732000       51.1533050000  IONS      85              1.0000000000
        86        86  SOD       SOD            -5.2083940500       43.4380176000       65.7581793000  IONS      86              1.0000000000
        87        87  SOD       SOD            45.0350710000       15.1713437000       43.5662181000  IONS      87              1.0000000000
        88        88  SOD       SOD            17.4289744000       16.8533346000      -27.9441559000  IONS      88              1.0000000000
        89        89  SOD       SOD            44.8600874000      -39.8174031000       65.5999637000  IONS      89              1.0000000000
        90        90  SOD       SOD           -37.9157242000      -51.2444918000      -49.0113924000  IONS      90              1.0000000000
        91        91  SOD       SOD           -45.2670507000        8.7755503900       90.4534145000  IONS      91              1.0000000000
        92        92  SOD       SOD           -47.6561482000       35.3988518000       79.8566522000  IONS      92              1.0000000000
        93        93  SOD       SOD           -42.8532899000      -49.9479737000       41.5406719000  IONS      93              1.0000000000
        94        94  SOD       SOD            -1.4591099500      -38.4454595000       85.1449911000  IONS      94              1.0000000000
        95        95  SOD       SOD            11.4521548000      -49.6601546000       69.0899472000  IONS      95              1.0000000000
        96        96  SOD       SOD             4.3384223540        6.9820089553       80.5253602151  IONS      96              1.0000000000
        97        97  CLA       CLA            52.2919059000       39.6124332000       33.8294944000  IONS      97             -1.0000000000
        98        98  CLA       CLA            43.4438789000       13.2783044000       39.0427278000  IONS      98             -1.0000000000
        99        99  CLA       CLA            13.2467136000       -3.2323108600      -33.6350374000  IONS      99             -1.0000000000
       100       100  CLA       CLA            27.1134471000        5.4575618900      -29.5716072000  IONS      100            -1.0000000000
       101       101  CLA       CLA           -25.3230376000      -19.4082042000       76.9445537000  IONS      101            -1.0000000000
       102       102  CLA       CLA            44.4218027000       28.1761081000       37.8543070000  IONS      102            -1.0000000000
       103       103  CLA       CLA           -36.7434613000       46.4883554000       41.2541282000  IONS      103            -1.0000000000
       104       104  CLA       CLA           -35.2785042000       47.0268826000      -39.6293954000  IONS      104            -1.0000000000
       105       105  CLA       CLA            -4.4608922600      -38.6445675000       29.4981055000  IONS      105            -1.0000000000
       106       106  CLA       CLA           -39.6155951000      -47.7142079000       77.2679958000  IONS      106            -1.0000000000
       107       107  CLA       CLA            40.4291949000      -17.8746891000       58.4675672000  IONS      107            -1.0000000000
       108       108  CLA       CLA            47.3302141000      -17.1385077000       44.0563240000  IONS      108            -1.0000000000
       109       109  CLA       CLA             9.6423777400       -3.7733642800       69.3252102000  IONS      109            -1.0000000000
       110       110  CLA       CLA            35.0812060000      -34.9260824000      -25.3225100000  IONS      110            -1.0000000000
       111       111  CLA       CLA            12.4276611000       20.9782829000       79.8377576000  IONS      111            -1.0000000000
       112       112  CLA       CLA            46.4986080000      -14.4813837000       72.6253434000  IONS      112            -1.0000000000
       113       113  CLA       CLA           -38.3561870945       16.3389519958       83.3498784928  IONS      113            -1.0000000000
       114       114  CLA       CLA           -43.8378102000      -19.4795143000      -27.0944631000  IONS      114            -1.0000000000
       115       115  CLA       CLA           -35.1030952000       29.3408644000       51.2180151000  IONS      115            -1.0000000000
       116       116  CLA       CLA             4.0255849200      -43.0475326000      -26.3222565000  IONS      116            -1.0000000000
       117       117  CLA       CLA            -5.4692535300      -19.3260889000      -27.2550411000  IONS      117            -1.0000000000
       118       118  CLA       CLA            50.0627079000      -37.2655595000       60.2802173000  IONS      118            -1.0000000000
       119       119  CLA       CLA            41.8575383000      -20.2325212000       64.4297986000  IONS      119            -1.0000000000
       120       120  CLA       CLA            29.6012996000      -39.6801603000       67.8712987000  IONS      120            -1.0000000000
       121       121  CLA       CLA           -43.7095716000      -36.5320317000      -32.1748120000  IONS      121            -1.0000000000
       122       122  CLA       CLA            26.9875151000      -10.6179196000       35.1910277000  IONS      122            -1.0000000000
       123       123  CLA       CLA            52.2526330000       -0.3779545960       47.0439649000  IONS      123            -1.0000000000
       124       124  CLA       CLA           -20.5061543000       15.3254121000      -28.4770010000  IONS      124            -1.0000000000
       125       125  CLA       CLA           -42.1146633000       33.8640873000      -31.0819864000  IONS      125            -1.0000000000
       126       126  CLA       CLA            24.5725824000      -50.5860633000       68.5396316000  IONS      126            -1.0000000000
       127       127  CLA       CLA           -46.4548731000      -12.8728183000       87.0104340000  IONS      127            -1.0000000000
       128       128  CLA       CLA            36.4343241000       37.5591782000       22.5177185000  IONS      128            -1.0000000000
       129       129  CLA       CLA           -48.0985821000      -13.4805433000       21.9691227000  IONS      129            -1.0000000000
       130       130  CLA       CLA            23.1113545000        2.2351449300       39.9449171000  IONS      130            -1.0000000000
       131       131  CLA       CLA            24.6940621000        2.7099825800      -41.1841509000  IONS      131            -1.0000000000
       132       132  CLA       CLA            54.2678934000      -40.2858353000       56.4041057000  IONS      132            -1.0000000000
       133       133  CLA       CLA           -51.3678511000      -17.1106846000       90.6357905000  IONS      133            -1.0000000000
       134       134  CLA       CLA            -6.6164150400       -9.5168944100       67.5920919000  IONS      134            -1.0000000000
       135       135  CLA       CLA           -14.7620221000       46.1983535000      -41.6143956000  IONS      135            -1.0000000000
       136       136  CLA       CLA            28.3859185000       50.6577690000      -26.3994127000  IONS      136            -1.0000000000
       137       137  CLA       CLA            41.4758136000      -27.6104315000       27.9846050000  IONS      137            -1.0000000000
       138       138  CLA       CLA            21.8636734000       -4.1915703400       54.6110504000  IONS      138            -1.0000000000
       139       139  CLA       CLA           -37.9918202000        8.2561004800       89.2442613000  IONS      139            -1.0000000000
       140       140  CLA       CLA           -29.0291016000       54.2721449000       68.0989821000  IONS      140            -1.0000000000
       141       141  CLA       CLA            43.0934120000       20.6204181000      -42.9980987000  IONS      141            -1.0000000000
       142       142  CLA       CLA            44.7425327000       -7.8342130000       61.1313076000  IONS      142            -1.0000000000
       143       143  CLA       CLA            20.5869944000       32.4214489000       33.7661560000  IONS      143            -1.0000000000
       144       144  CLA       CLA            10.6295996000      -28.7109871000       70.8134081000  IONS      144            -1.0000000000
       145       145  CLA       CLA            41.6541457000       14.1288319000       67.6240971000  IONS      145            -1.0000000000
       146       146  CLA       CLA            42.7596690400      -38.7335807773       53.1245314720  IONS      146            -1.0000000000
       147       147  CLA       CLA           -28.3190886000       21.7674056000      -26.3659888000  IONS      147            -1.0000000000
       148       148  CLA       CLA             0.7664166998       39.5923744017       41.5437813997  IONS      148            -1.0000000000
       149       149  CLA       CLA           -23.5431741000       30.3626615000       59.0583069000  IONS      149            -1.0000000000
       150       150  CLA       CLA            52.8705817000      -37.9598435000       65.7972951000  IONS      150            -1.0000000000
       151       151  CLA       CLA           -42.7733015000      -30.0227228000      -44.9927987000  IONS      151            -1.0000000000
       152       152  CLA       CLA             4.3945975500      -51.4413944000       32.2023121000  IONS      152            -1.0000000000
       153       153  CLA       CLA           -40.8488435000       43.5839392000       34.5321930000  IONS      153            -1.0000000000
       154       154  CLA       CLA            17.5887102000       18.3042984000       39.8105305000  IONS      154            -1.0000000000
       155       155  CLA       CLA             7.4710380200        9.8257295300       84.8331571000  IONS      155            -1.0000000000
       156       156  CLA       CLA           -22.6971954000       14.3310556000      -46.6067503000  IONS      156            -1.0000000000
       157       157  CLA       CLA            29.3772070000       42.0557222000       78.4084513000  IONS      157            -1.0000000000
       158       158  CLA       CLA            47.8400461744       13.7385499446      -41.8733571798  IONS      158            -1.0000000000
       159       159  CLA       CLA             4.7385126100      -35.4507586000      -43.3159602000  IONS      159            -1.0000000000
       160       160  CLA       CLA            17.3510206000       -4.0510239900       73.3405493000  IONS      160            -1.0000000000
       161       161  CLA       CLA           -38.6020600000      -18.3042134000       57.8362836000  IONS      161            -1.0000000000
       162       162  CLA       CLA            49.1921531000      -11.5848738000       68.2280835000  IONS      162            -1.0000000000
       163       163  CLA       CLA            22.5583738000       22.7358219000      -32.2477744000  IONS      163            -1.0000000000
       164       164  CLA       CLA            25.4735236000        5.2729603100       76.1866052000  IONS      164            -1.0000000000
       165       165  CLA       CLA            43.2721099000       26.0871808000      -34.7855929000  IONS      165            -1.0000000000
       166       166  CLA       CLA             3.0271980300       23.0872484000       44.5180853000  IONS      166            -1.0000000000
       167       167  CLA       CLA            27.3518678000      -38.9514059000       75.2706244000  IONS      167            -1.0000000000
       168       168  CLA       CLA           -46.3201231000      -40.9742706000       62.8164199000  IONS      168            -1.0000000000
       169       169  CLA       CLA            -2.6745587300       37.4853968000       72.0822120000  IONS      169            -1.0000000000
       170       170  CLA       CLA           -14.9079829000       46.0071329000       65.8524733000  IONS      170            -1.0000000000
       171       171  CLA       CLA           -15.1083779000       40.2319430000       51.3906577000  IONS      171            -1.0000000000
       172       172  CLA       CLA           -40.0177663000       -0.6378791370      -30.6505669000  IONS      172            -1.0000000000
       173       173  CLA       CLA           -15.0385176000        2.2899172800      -35.4773814000  IONS      173            -1.0000000000
       174       174  CLA       CLA            23.9714972000       52.1333537000       83.4270580000  IONS      174            -1.0000000000
       175       175  CLA       CLA            42.1689440874       -2.9344576110       89.3302406060  IONS      175            -1.0000000000
       176       176  CLA       CLA            44.0809496099       -8.9152534887       28.1682099260  IONS      176            -1.0000000000
       177       177  CLA       CLA            -5.5333493600      -24.8395747000       77.1730396000  IONS      177            -1.0000000000
       178       178  CLA       CLA            -7.8704883889       37.6034672797       24.7960607240  IONS      178            -1.0000000000
       179       179  CLA       CLA            47.9204110000      -18.0453627000       50.4614493000  IONS      179            -1.0000000000
       180       180  CLA       CLA           -11.8342148000      -31.3863925000       62.6170962000  IONS      180            -1.0000000000
       181       181  CLA       CLA           -51.7024942907      -51.1189034012       64.4716051177  IONS      181            -1.0000000000
       182       182  CLA       CLA            19.9947728000      -42.2143545000       62.0476899000  IONS      182            -1.0000000000
       183       183  CLA       CLA             8.6283549000      -46.6261412000      -25.2998347000  IONS      183            -1.0000000000
       184       184  CLA       CLA           -22.0005157086      -38.9116510042       66.7924376970  IONS      184            -1.0000000000
       185       185  CLA       CLA           -22.5690845597      -28.8115732074       45.1532115367  IONS      185            -1.0000000000
       186       186  CLA       CLA             3.9638259900       52.7667840000      -44.9706412000  IONS      186            -1.0000000000
       187       187  CLA       CLA           -47.5778408000      -11.4569070000       43.4057591000  IONS      187            -1.0000000000
       188       188  CLA       CLA            -2.8995684400       -8.0305009500      -46.3218708000  IONS      188            -1.0000000000
       189       189  CLA       CLA            -5.4935542900       28.1928586000       72.5796078000  IONS      189            -1.0000000000
       190       190  CLA       CLA           -14.0697318000        9.0601514100       85.9739562000  IONS      190            -1.0000000000
       191       191  CLA       CLA            -4.5072294700       45.6652633000       41.2926498000  IONS      191            -1.0000000000
       192       192  CLA       CLA            12.8014645000      -44.4334130000       67.1932216000  IONS      192            -1.0000000000
       193       193  CLA       CLA           -38.1773472367      -53.7337727816       41.3407158258  IONS      193            -1.0000000000
       194       194  CLA       CLA            47.6896577000        9.8779604100       30.5156958000  IONS      194            -1.0000000000
       195       195  CLA       CLA            41.6724683000       48.4189115000      -44.5494437000  IONS      195            -1.0000000000
       196       196  CLA       CLA           -28.4124901000        4.2567009900      -40.7013926000  IONS      196            -1.0000000000
       197       197  CLA       CLA           -30.5440824000       37.0568388000       45.2295558000  IONS      197            -1.0000000000
       198       198  CLA       CLA           -52.2008420039       19.9194932420       68.4031566268  IONS      198            -1.0000000000
       199       199  CLA       CLA            15.5975583306        3.7329184533       65.2708509220  IONS      199            -1.0000000000
       200       200  CLA       CLA            19.2562991000      -12.6614262000       42.0005248000  IONS      200            -1.0000000000
       201       201  CLA       CLA           -36.6851878000      -52.5290026000      -29.0321943000  IONS      201            -1.0000000000
       202       202  CLA       CLA             7.3659782268       48.1152767084      -34.9048564804  IONS      202            -1.0000000000
       203       203  CLA       CLA           -23.8098204151      -33.9151033963      -44.0660019874  IONS      203            -1.0000000000
       204       204  CLA       CLA           -47.9492039000       17.7207483000       80.5081638000  IONS      204            -1.0000000000
       205       205  CLA       CLA           -44.4663897000      -45.2978276000       45.2998303000  IONS      205            -1.0000000000
       206       206  CLA       CLA            28.6428038000       34.1388014000       29.7976022000  IONS      206            -1.0000000000
       207       207  CLA       CLA            23.2748244000       51.7448547000      -50.1448279000  IONS      207            -1.0000000000
       208       208  CLA       CLA            27.6057140000      -25.0476848000       54.1160974000  IONS      208            -1.0000000000
       209       209  CLA       CLA            18.0976126000       -7.3567107600       57.4857951000  IONS      209            -1.0000000000
       210       210  CLA       CLA            -4.4743459078       -5.2800525597      -32.6619363989  IONS      210            -1.0000000000
       211       211  CLA       CLA           -52.2477930000       48.4894744000      -38.4522630000  IONS      211            -1.0000000000
       212       212  CLA       CLA           -51.7104974000      -28.0551151000       58.8364978000  IONS      212            -1.0000000000
       213       213  CLA       CLA            -4.9744944613       37.4636171905       30.1970492343  IONS      213            -1.0000000000
       214       214  CLA       CLA             0.3601444410       10.6337330000      -31.0409491000  IONS      214            -1.0000000000
       215       215  CLA       CLA            19.2800143000      -46.7636480000       35.3176166000  IONS      215            -1.0000000000
