* GENERATED BY CHARMM-GUI (HTTP://WWW.CHARMM-GUI.ORG) V3.7 ON FEB, 08. 2026. JOB
* REPLACE PACKED BIG SPHERES BY LIPID MOLECULES OF RANDOM CONFORMATION
*  DATE:     2/ 8/26      2:13:57      CREATED BY USER: charmm-gui
*
     42846  EXT
         1         1  CHL1      C3             41.6868824334       30.1260735513       17.2875250000  MEMB      1               0.0000000000
         2         1  CHL1      H3             40.8951083895       30.8766989427       17.0778150000  MEMB      1               0.0000000000
         3         1  CHL1      O3             41.6252533666       29.9684962487       18.7124750000  MEMB      1               0.0000000000
         4         1  CHL1      H3'            40.7177009905       29.7437420998       18.9302750000  MEMB      1               0.0000000000
         5         1  CHL1      C4             41.3184616262       28.7568356549       16.7252250000  MEMB      1               0.0000000000
         6         1  CHL1      H4A            42.0820535306       28.0821995511       17.1680650000  MEMB      1               0.0000000000
         7         1  CHL1      H4B            40.3222577723       28.3848827538       17.0470150000  MEMB      1               0.0000000000
         8         1  CHL1      C5             41.3760714284       28.8444316793       15.2031450000  MEMB      1               0.0000000000
         9         1  CHL1      C6             40.2988206642       28.5821020441       14.3781450000  MEMB      1               0.0000000000
        10         1  CHL1      H6             39.3879837943       28.2160522046       14.8745150000  MEMB      1               0.0000000000
        11         1  CHL1      C7             40.2199699542       28.6488231841       12.8767350000  MEMB      1               0.0000000000
        12         1  CHL1      H7A            39.5780248129       27.8146386776       12.5212550000  MEMB      1               0.0000000000
        13         1  CHL1      H7B            39.7018472743       29.5822444426       12.5691750000  MEMB      1               0.0000000000
        14         1  CHL1      C8             41.5865135676       28.5311619137       12.3553850000  MEMB      1               0.0000000000
        15         1  CHL1      H8             41.9741918965       27.5043226126       12.5275250000  MEMB      1               0.0000000000
        16         1  CHL1      C14            41.7000407686       28.8650346666       10.8038550000  MEMB      1               0.0000000000
        17         1  CHL1      H14            41.4949453432       29.9471726103       10.6581750000  MEMB      1               0.0000000000
        18         1  CHL1      C15            40.7263711325       28.1719600293        9.8807950000  MEMB      1               0.0000000000
        19         1  CHL1      H15A           40.7777926483       27.1435884544       10.2980750000  MEMB      1               0.0000000000
        20         1  CHL1      H15B           39.6818354242       28.5127459038       10.0455050000  MEMB      1               0.0000000000
        21         1  CHL1      C16            41.2985635106       28.3736283263        8.5075950000  MEMB      1               0.0000000000
        22         1  CHL1      H16A           41.3431495629       27.5107420300        7.8091950000  MEMB      1               0.0000000000
        23         1  CHL1      H16B           40.5712966150       29.0110890857        7.9607350000  MEMB      1               0.0000000000
        24         1  CHL1      C17            42.6968993557       29.0036769947        8.6981250000  MEMB      1               0.0000000000
        25         1  CHL1      H17            42.4944997721       30.0960740922        8.6932150000  MEMB      1               0.0000000000
        26         1  CHL1      C13            43.0483995256       28.7567860630       10.1714850000  MEMB      1               0.0000000000
        27         1  CHL1      C18            43.6542872423       27.3757231827       10.3184450000  MEMB      1               0.0000000000
        28         1  CHL1      H18A           43.1822060155       26.6907820143        9.5820250000  MEMB      1               0.0000000000
        29         1  CHL1      H18B           44.7207953275       27.4679235102       10.0211650000  MEMB      1               0.0000000000
        30         1  CHL1      H18C           43.6202801230       27.0919547611       11.3920550000  MEMB      1               0.0000000000
        31         1  CHL1      C12            44.0059673855       29.7576765394       10.8772950000  MEMB      1               0.0000000000
        32         1  CHL1      H12A           45.0380804033       29.6361478227       10.4845050000  MEMB      1               0.0000000000
        33         1  CHL1      H12B           43.6579044815       30.8035248334       10.7380950000  MEMB      1               0.0000000000
        34         1  CHL1      C11            43.9590011150       29.5797626883       12.4264550000  MEMB      1               0.0000000000
        35         1  CHL1      H11A           44.4447686177       28.5911125803       12.5711250000  MEMB      1               0.0000000000
        36         1  CHL1      H11B           44.6205101411       30.3748210500       12.8321750000  MEMB      1               0.0000000000
        37         1  CHL1      C9             42.5465870346       29.5598108471       13.0684850000  MEMB      1               0.0000000000
        38         1  CHL1      H9             42.0501865409       30.5331379526       12.8671450000  MEMB      1               0.0000000000
        39         1  CHL1      C10            42.6557516768       29.3188660531       14.6044750000  MEMB      1               0.0000000000
        40         1  CHL1      C19            43.7308731902       28.2546645712       15.0040750000  MEMB      1               0.0000000000
        41         1  CHL1      H19A           44.7891151064       28.5416100813       14.8248650000  MEMB      1               0.0000000000
        42         1  CHL1      H19B           43.7961411244       27.8761423857       16.0465650000  MEMB      1               0.0000000000
        43         1  CHL1      H19C           43.5456321152       27.3516477109       14.3839350000  MEMB      1               0.0000000000
        44         1  CHL1      C1             43.0634190993       30.6614199880       15.2735450000  MEMB      1               0.0000000000
        45         1  CHL1      H1A            44.0663863657       30.8998614891       14.8593950000  MEMB      1               0.0000000000
        46         1  CHL1      H1B            42.3772899291       31.4509364266       14.8990950000  MEMB      1               0.0000000000
        47         1  CHL1      C2             43.1031541454       30.5460844917       16.8085750000  MEMB      1               0.0000000000
        48         1  CHL1      H2A            43.2914337180       31.5374727525       17.2733650000  MEMB      1               0.0000000000
        49         1  CHL1      H2B            43.8268482867       29.7602775873       17.1136950000  MEMB      1               0.0000000000
        50         1  CHL1      C20            43.7880959300       28.6374013462        7.5830350000  MEMB      1               0.0000000000
        51         1  CHL1      H20            44.0599645136       27.5640675916        7.6745050000  MEMB      1               0.0000000000
        52         1  CHL1      C21            45.0428545771       29.4507630872        7.7981050000  MEMB      1               0.0000000000
        53         1  CHL1      H21A           45.6902338926       29.2505604541        6.9176850000  MEMB      1               0.0000000000
        54         1  CHL1      H21B           45.6117873465       29.0820775018        8.6782750000  MEMB      1               0.0000000000
        55         1  CHL1      H21C           44.8140634991       30.5330803274        7.9009150000  MEMB      1               0.0000000000
        56         1  CHL1      C22            43.2337588799       28.7491889655        6.1579150000  MEMB      1               0.0000000000
        57         1  CHL1      H22A           42.1951246780       28.3560176579        6.1890150000  MEMB      1               0.0000000000
        58         1  CHL1      H22B           43.1178431083       29.8232185273        5.8983750000  MEMB      1               0.0000000000
        59         1  CHL1      C23            44.0820048314       28.0737920565        5.0007950000  MEMB      1               0.0000000000
        60         1  CHL1      H23A           45.1037646744       27.9382004179        5.4154350000  MEMB      1               0.0000000000
        61         1  CHL1      H23B           43.6722010399       27.0568325489        4.8214350000  MEMB      1               0.0000000000
        62         1  CHL1      C24            43.9596178368       28.8464239337        3.6704650000  MEMB      1               0.0000000000
        63         1  CHL1      H24A           42.9317051505       28.6671575669        3.2889050000  MEMB      1               0.0000000000
        64         1  CHL1      H24B           43.9510273673       29.9140014786        3.9779250000  MEMB      1               0.0000000000
        65         1  CHL1      C25            45.0256562808       28.5956484872        2.5591750000  MEMB      1               0.0000000000
        66         1  CHL1      H25            44.6201347294       29.3229933710        1.8237550000  MEMB      1               0.0000000000
        67         1  CHL1      C26            46.4243668923       28.9715072334        3.0723250000  MEMB      1               0.0000000000
        68         1  CHL1      H26A           47.1533301269       28.8591490637        2.2414750000  MEMB      1               0.0000000000
        69         1  CHL1      H26B           46.4812529255       30.0330481896        3.3951550000  MEMB      1               0.0000000000
        70         1  CHL1      H26C           46.7447214591       28.4066530818        3.9737850000  MEMB      1               0.0000000000
        71         1  CHL1      C27            45.1121729724       27.1445653497        2.0258550000  MEMB      1               0.0000000000
        72         1  CHL1      H27A           44.0593903342       26.8851365778        1.7836650000  MEMB      1               0.0000000000
        73         1  CHL1      H27B           45.7174452643       27.0313671800        1.1011150000  MEMB      1               0.0000000000
        74         1  CHL1      H27C           45.6025472695       26.4731060421        2.7627450000  MEMB      1               0.0000000000
        75         2  CHL1      C3             19.9889179002      -33.0305875878       17.2886700000  MEMB      2               0.0000000000
        76         2  CHL1      H3             18.9083940399      -32.7778135127       17.3425500000  MEMB      2               0.0000000000
        77         2  CHL1      O3             20.3815636998      -32.9592546122       18.7113300000  MEMB      2               0.0000000000
        78         2  CHL1      H3'            19.6202471423      -32.5791548102       19.1557500000  MEMB      2               0.0000000000
        79         2  CHL1      C4             20.1624072449      -34.5204069428       16.8348300000  MEMB      2               0.0000000000
        80         2  CHL1      H4A            21.1122561981      -34.9122876729       17.2573600000  MEMB      2               0.0000000000
        81         2  CHL1      H4B            19.3658314904      -35.0784899771       17.3718000000  MEMB      2               0.0000000000
        82         2  CHL1      C5             20.0598340902      -34.7539163558       15.3661900000  MEMB      2               0.0000000000
        83         2  CHL1      C6             19.4087993070      -35.8069664404       14.8464300000  MEMB      2               0.0000000000
        84         2  CHL1      H6             18.8866130731      -36.5302564428       15.4900100000  MEMB      2               0.0000000000
        85         2  CHL1      C7             19.4484658024      -36.1934010378       13.3728100000  MEMB      2               0.0000000000
        86         2  CHL1      H7A            19.5303577133      -37.2996899560       13.3116500000  MEMB      2               0.0000000000
        87         2  CHL1      H7B            18.4452930257      -35.9894382612       12.9411000000  MEMB      2               0.0000000000
        88         2  CHL1      C8             20.5386504515      -35.4456986975       12.5195100000  MEMB      2               0.0000000000
        89         2  CHL1      H8             21.4918572034      -35.9657799614       12.7544900000  MEMB      2               0.0000000000
        90         2  CHL1      C14            20.1927918140      -35.6423051610       11.0243300000  MEMB      2               0.0000000000
        91         2  CHL1      H14            19.1728128044      -35.2130394690       10.9258000000  MEMB      2               0.0000000000
        92         2  CHL1      C15            19.9618253318      -36.9741731657       10.2662900000  MEMB      2               0.0000000000
        93         2  CHL1      H15A           20.6828331001      -37.6814503836       10.7291200000  MEMB      2               0.0000000000
        94         2  CHL1      H15B           18.9062473312      -37.2342848480       10.4952400000  MEMB      2               0.0000000000
        95         2  CHL1      C16            20.1448906120      -36.7676225924        8.7670200000  MEMB      2               0.0000000000
        96         2  CHL1      H16A           20.9521167981      -37.4357989546        8.3979100000  MEMB      2               0.0000000000
        97         2  CHL1      H16B           19.2466104457      -37.0400641816        8.1727200000  MEMB      2               0.0000000000
        98         2  CHL1      C17            20.6370479409      -35.3148237194        8.6718500000  MEMB      2               0.0000000000
        99         2  CHL1      H17            19.7609620371      -34.6343141385        8.6109700000  MEMB      2               0.0000000000
       100         2  CHL1      C13            21.1589696361      -34.9521386604       10.0488400000  MEMB      2               0.0000000000
       101         2  CHL1      C18            22.6416797163      -35.5110341567       10.2815100000  MEMB      2               0.0000000000
       102         2  CHL1      H18A           22.9504362037      -35.4958361987       11.3486400000  MEMB      2               0.0000000000
       103         2  CHL1      H18B           22.4726024120      -36.5711403219        9.9953300000  MEMB      2               0.0000000000
       104         2  CHL1      H18C           23.4370366045      -35.0486226672        9.6586900000  MEMB      2               0.0000000000
       105         2  CHL1      C12            21.1171398077      -33.4643318364       10.4375900000  MEMB      2               0.0000000000
       106         2  CHL1      H12A           21.7851148102      -32.7926537342        9.8570900000  MEMB      2               0.0000000000
       107         2  CHL1      H12B           20.0698444641      -33.0938441776       10.4221900000  MEMB      2               0.0000000000
       108         2  CHL1      C11            21.4854022387      -33.1609617923       11.8612800000  MEMB      2               0.0000000000
       109         2  CHL1      H11A           22.5535519387      -33.4265890638       12.0123300000  MEMB      2               0.0000000000
       110         2  CHL1      H11B           21.4735289480      -32.0885832739       12.1514300000  MEMB      2               0.0000000000
       111         2  CHL1      C9             20.6233185234      -33.9229186191       12.8842000000  MEMB      2               0.0000000000
       112         2  CHL1      H9             19.6395693614      -33.4518330915       12.6729300000  MEMB      2               0.0000000000
       113         2  CHL1      C10            20.8521329779      -33.7672505109       14.4263400000  MEMB      2               0.0000000000
       114         2  CHL1      C19            22.4350656909      -33.9261392211       14.7616500000  MEMB      2               0.0000000000
       115         2  CHL1      H19A           22.6319130765      -34.0349159998       15.8496500000  MEMB      2               0.0000000000
       116         2  CHL1      H19B           22.7884352257      -34.8438643691       14.2447100000  MEMB      2               0.0000000000
       117         2  CHL1      H19C           23.0251655948      -33.0531139075       14.4096200000  MEMB      2               0.0000000000
       118         2  CHL1      C1             20.4401213329      -32.3365084470       14.8675900000  MEMB      2               0.0000000000
       119         2  CHL1      H1A            20.9512430045      -31.5279372793       14.3025400000  MEMB      2               0.0000000000
       120         2  CHL1      H1B            19.4072140597      -31.9790483718       14.6684800000  MEMB      2               0.0000000000
       121         2  CHL1      C2             20.7451009186      -32.0652789708       16.3660700000  MEMB      2               0.0000000000
       122         2  CHL1      H2A            20.3280684836      -31.0663019303       16.6159600000  MEMB      2               0.0000000000
       123         2  CHL1      H2B            21.8445138924      -32.0647951104       16.5261100000  MEMB      2               0.0000000000
       124         2  CHL1      C20            21.4190383392      -35.0412449480        7.3418700000  MEMB      2               0.0000000000
       125         2  CHL1      H20            22.2572392185      -35.7611540153        7.2258500000  MEMB      2               0.0000000000
       126         2  CHL1      C21            21.9558390379      -33.5775022536        7.3731600000  MEMB      2               0.0000000000
       127         2  CHL1      H21A           22.5936113093      -33.3342839755        6.4965600000  MEMB      2               0.0000000000
       128         2  CHL1      H21B           22.6842591407      -33.6528260852        8.2086600000  MEMB      2               0.0000000000
       129         2  CHL1      H21C           21.1835859897      -32.7933065029        7.5247400000  MEMB      2               0.0000000000
       130         2  CHL1      C22            20.5232597495      -35.3158652100        6.1198600000  MEMB      2               0.0000000000
       131         2  CHL1      H22A           20.2947771958      -36.4024589128        6.0821500000  MEMB      2               0.0000000000
       132         2  CHL1      H22B           19.6209304421      -34.6688731374        6.0807300000  MEMB      2               0.0000000000
       133         2  CHL1      C23            21.1961215385      -34.9928946544        4.7482000000  MEMB      2               0.0000000000
       134         2  CHL1      H23A           21.3249588068      -33.8894282044        4.7388100000  MEMB      2               0.0000000000
       135         2  CHL1      H23B           22.1794976434      -35.4921585447        4.6139300000  MEMB      2               0.0000000000
       136         2  CHL1      C24            20.2846122577      -35.3073721310        3.5553600000  MEMB      2               0.0000000000
       137         2  CHL1      H24A           19.7366626439      -36.2710906083        3.6283100000  MEMB      2               0.0000000000
       138         2  CHL1      H24B           19.5430711694      -34.4815984436        3.6056400000  MEMB      2               0.0000000000
       139         2  CHL1      C25            20.9035351938      -35.3516835218        2.1548500000  MEMB      2               0.0000000000
       140         2  CHL1      H25            21.6861854310      -36.1374225682        2.0884400000  MEMB      2               0.0000000000
       141         2  CHL1      C26            19.8255688513      -35.5647244591        1.1380300000  MEMB      2               0.0000000000
       142         2  CHL1      H26A           20.2217039979      -35.7318557647        0.1136000000  MEMB      2               0.0000000000
       143         2  CHL1      H26B           19.1714229620      -36.3997580333        1.4683900000  MEMB      2               0.0000000000
       144         2  CHL1      H26C           19.1963093482      -34.6655629824        0.9652000000  MEMB      2               0.0000000000
       145         2  CHL1      C27            21.5210668147      -33.9640642476        1.7040600000  MEMB      2               0.0000000000
       146         2  CHL1      H27A           22.4236107159      -33.7041519108        2.2975100000  MEMB      2               0.0000000000
       147         2  CHL1      H27B           21.7665984437      -34.1081673231        0.6301500000  MEMB      2               0.0000000000
       148         2  CHL1      H27C           20.7436784964      -33.1809820055        1.8335500000  MEMB      2               0.0000000000
       149         3  CHL1      C3            -24.0839607541       27.7240367819       17.3047950000  MEMB      3               0.0000000000
       150         3  CHL1      H3            -24.6642550815       28.5947681207       16.9314250000  MEMB      3               0.0000000000
       151         3  CHL1      O3            -24.2077982459       27.4844756181       18.6952050000  MEMB      3               0.0000000000
       152         3  CHL1      H3'           -24.0377439947       28.3420643972       19.0917250000  MEMB      3               0.0000000000
       153         3  CHL1      C4            -24.5751613554       26.5145942417       16.6684550000  MEMB      3               0.0000000000
       154         3  CHL1      H4A           -24.1889504780       25.5749608893       17.1181650000  MEMB      3               0.0000000000
       155         3  CHL1      H4B           -25.6608250405       26.4837713500       16.9023750000  MEMB      3               0.0000000000
       156         3  CHL1      C5            -24.3366303706       26.5029301146       15.1928450000  MEMB      3               0.0000000000
       157         3  CHL1      C6            -25.3237995532       26.4665045647       14.2834050000  MEMB      3               0.0000000000
       158         3  CHL1      H6            -26.3650837706       26.3710810503       14.6248950000  MEMB      3               0.0000000000
       159         3  CHL1      C7            -25.0217368536       26.4849820987       12.8182650000  MEMB      3               0.0000000000
       160         3  CHL1      H7A           -25.8031669417       25.9340479523       12.2524450000  MEMB      3               0.0000000000
       161         3  CHL1      H7B           -25.1412906263       27.5418226116       12.4971750000  MEMB      3               0.0000000000
       162         3  CHL1      C8            -23.6253848489       26.1391018572       12.3554850000  MEMB      3               0.0000000000
       163         3  CHL1      H8            -23.5290605602       25.0376752828       12.4646250000  MEMB      3               0.0000000000
       164         3  CHL1      C14           -23.3200624710       26.5264545042       10.8922550000  MEMB      3               0.0000000000
       165         3  CHL1      H14           -23.5249442865       27.6126366737       10.7802450000  MEMB      3               0.0000000000
       166         3  CHL1      C15           -24.1805653082       25.9171987758        9.7709350000  MEMB      3               0.0000000000
       167         3  CHL1      H15A          -24.3978706944       24.8717555563       10.0777650000  MEMB      3               0.0000000000
       168         3  CHL1      H15B          -25.1456127766       26.4674007648        9.7541950000  MEMB      3               0.0000000000
       169         3  CHL1      C16           -23.3046739014       25.8471729362        8.5342250000  MEMB      3               0.0000000000
       170         3  CHL1      H16A          -23.2373688168       24.8226735454        8.1097350000  MEMB      3               0.0000000000
       171         3  CHL1      H16B          -23.7564063581       26.4549989109        7.7213250000  MEMB      3               0.0000000000
       172         3  CHL1      C17           -21.9884276466       26.4827002606        8.9240550000  MEMB      3               0.0000000000
       173         3  CHL1      H17           -22.0957001982       27.5755278269        8.7551050000  MEMB      3               0.0000000000
       174         3  CHL1      C13           -21.8922092139       26.2364393467       10.4518950000  MEMB      3               0.0000000000
       175         3  CHL1      C18           -21.5444216369       24.7006066015       10.6443750000  MEMB      3               0.0000000000
       176         3  CHL1      H18A          -22.0941810074       24.0395723014        9.9407350000  MEMB      3               0.0000000000
       177         3  CHL1      H18B          -20.4568540518       24.5763837503       10.4544250000  MEMB      3               0.0000000000
       178         3  CHL1      H18C          -21.7989089569       24.3002251638       11.6489850000  MEMB      3               0.0000000000
       179         3  CHL1      C12           -20.9416270136       27.1630382296       11.2396350000  MEMB      3               0.0000000000
       180         3  CHL1      H12A          -19.9022294584       26.8684705393       10.9803750000  MEMB      3               0.0000000000
       181         3  CHL1      H12B          -20.9698583206       28.2432603626       10.9815050000  MEMB      3               0.0000000000
       182         3  CHL1      C11           -21.2050348092       26.9476326628       12.7981250000  MEMB      3               0.0000000000
       183         3  CHL1      H11A          -20.7366915324       25.9678639722       13.0327250000  MEMB      3               0.0000000000
       184         3  CHL1      H11B          -20.7307783483       27.7885574436       13.3478850000  MEMB      3               0.0000000000
       185         3  CHL1      C9            -22.6918206487       26.9626379041       13.2367650000  MEMB      3               0.0000000000
       186         3  CHL1      H9            -22.9851944470       28.0337930251       13.2070650000  MEMB      3               0.0000000000
       187         3  CHL1      C10           -22.8491601572       26.6439118056       14.7341550000  MEMB      3               0.0000000000
       188         3  CHL1      C19           -22.1391945871       25.3697480695       15.2370450000  MEMB      3               0.0000000000
       189         3  CHL1      H19A          -21.0319164894       25.4474172979       15.2842250000  MEMB      3               0.0000000000
       190         3  CHL1      H19B          -22.4528209864       25.1898841338       16.2875750000  MEMB      3               0.0000000000
       191         3  CHL1      H19C          -22.5631046765       24.5415473946       14.6298350000  MEMB      3               0.0000000000
       192         3  CHL1      C1            -22.3059585307       27.9014110871       15.5329150000  MEMB      3               0.0000000000
       193         3  CHL1      H1A           -21.2009001294       27.8473078869       15.4317650000  MEMB      3               0.0000000000
       194         3  CHL1      H1B           -22.8021300794       28.8140224082       15.1388550000  MEMB      3               0.0000000000
       195         3  CHL1      C2            -22.5773712669       27.9746700227       17.0242550000  MEMB      3               0.0000000000
       196         3  CHL1      H2A           -22.2383859831       28.9588767718       17.4125050000  MEMB      3               0.0000000000
       197         3  CHL1      H2B           -21.9125415928       27.2473348511       17.5373850000  MEMB      3               0.0000000000
       198         3  CHL1      C20           -20.8197331386       26.2039223303        7.8965850000  MEMB      3               0.0000000000
       199         3  CHL1      H20           -20.3494527586       25.2496687437        8.2168050000  MEMB      3               0.0000000000
       200         3  CHL1      C21           -19.6370519136       27.2402953124        7.9638150000  MEMB      3               0.0000000000
       201         3  CHL1      H21A          -19.2222748882       27.0900427728        8.9834750000  MEMB      3               0.0000000000
       202         3  CHL1      H21B          -19.9002342023       28.2726962795        7.6488450000  MEMB      3               0.0000000000
       203         3  CHL1      H21C          -18.7664253699       26.9411179506        7.3418550000  MEMB      3               0.0000000000
       204         3  CHL1      C22           -21.2068253152       25.9793437655        6.4412750000  MEMB      3               0.0000000000
       205         3  CHL1      H22A          -21.6543909537       24.9656370168        6.3612550000  MEMB      3               0.0000000000
       206         3  CHL1      H22B          -22.0293630077       26.6229532503        6.0624350000  MEMB      3               0.0000000000
       207         3  CHL1      C23           -20.0086407168       26.0033693455        5.4304850000  MEMB      3               0.0000000000
       208         3  CHL1      H23A          -19.7549421459       27.0493290022        5.1549450000  MEMB      3               0.0000000000
       209         3  CHL1      H23B          -19.1420239623       25.5133980161        5.9236750000  MEMB      3               0.0000000000
       210         3  CHL1      C24           -20.1344025782       25.0953753661        4.2414250000  MEMB      3               0.0000000000
       211         3  CHL1      H24A          -20.2783889162       24.0760505995        4.6592250000  MEMB      3               0.0000000000
       212         3  CHL1      H24B          -21.0314339546       25.5028459562        3.7279650000  MEMB      3               0.0000000000
       213         3  CHL1      C25           -18.9650710340       25.0886778121        3.2520050000  MEMB      3               0.0000000000
       214         3  CHL1      H25           -19.3518545551       24.5275582987        2.3745850000  MEMB      3               0.0000000000
       215         3  CHL1      C26           -18.4393943660       26.3974298949        2.7474350000  MEMB      3               0.0000000000
       216         3  CHL1      H26A          -17.5150562624       26.2686414671        2.1446450000  MEMB      3               0.0000000000
       217         3  CHL1      H26B          -19.1608227373       26.9867417769        2.1419850000  MEMB      3               0.0000000000
       218         3  CHL1      H26C          -18.2255444258       27.0483635231        3.6220050000  MEMB      3               0.0000000000
       219         3  CHL1      C27           -17.7305252851       24.3874303536        3.8438150000  MEMB      3               0.0000000000
       220         3  CHL1      H27A          -16.7721319902       24.4843130023        3.2902550000  MEMB      3               0.0000000000
       221         3  CHL1      H27B          -17.4646578713       24.8048788111        4.8384850000  MEMB      3               0.0000000000
       222         3  CHL1      H27C          -17.8785002295       23.2866240160        3.8181250000  MEMB      3               0.0000000000
       223         4  CHL1      C3            -23.7318526513       18.8655036790       17.3178000000  MEMB      4               0.0000000000
       224         4  CHL1      H3            -23.3415599936       17.8300083734       17.4165600000  MEMB      4               0.0000000000
       225         4  CHL1      O3            -23.9676975361       19.2245190189       18.6822000000  MEMB      4               0.0000000000
       226         4  CHL1      H3'           -24.7954504457       18.7819968133       18.8836600000  MEMB      4               0.0000000000
       227         4  CHL1      C4            -22.5854142032       19.6964458986       16.7593900000  MEMB      4               0.0000000000
       228         4  CHL1      H4A           -22.9168381345       20.7561406682       16.7983900000  MEMB      4               0.0000000000
       229         4  CHL1      H4B           -21.7179406493       19.5172345257       17.4299900000  MEMB      4               0.0000000000
       230         4  CHL1      C5            -22.3660422135       19.4803578630       15.2850200000  MEMB      4               0.0000000000
       231         4  CHL1      C6            -21.1357668369       19.0501145863       14.8665500000  MEMB      4               0.0000000000
       232         4  CHL1      H6            -20.3363009230       18.9658266526       15.6173900000  MEMB      4               0.0000000000
       233         4  CHL1      C7            -20.8891623392       18.8294218018       13.3834300000  MEMB      4               0.0000000000
       234         4  CHL1      H7A           -20.0354017069       19.4123873032       12.9765400000  MEMB      4               0.0000000000
       235         4  CHL1      H7B           -20.7094382920       17.7522475360       13.1791800000  MEMB      4               0.0000000000
       236         4  CHL1      C8            -22.0490251670       19.1929789872       12.4596100000  MEMB      4               0.0000000000
       237         4  CHL1      H8            -22.1669508798       20.2920303268       12.3478900000  MEMB      4               0.0000000000
       238         4  CHL1      C14           -21.9727318968       18.4831197624       11.1297300000  MEMB      4               0.0000000000
       239         4  CHL1      H14           -22.2754278942       17.4365296864       11.3473000000  MEMB      4               0.0000000000
       240         4  CHL1      C15           -20.6857907724       18.2684279169       10.3203900000  MEMB      4               0.0000000000
       241         4  CHL1      H15A          -20.0594713491       19.1810764684       10.2249200000  MEMB      4               0.0000000000
       242         4  CHL1      H15B          -20.0081923606       17.6107730205       10.9057600000  MEMB      4               0.0000000000
       243         4  CHL1      C16           -21.0933690009       17.8548624965        8.9120900000  MEMB      4               0.0000000000
       244         4  CHL1      H16A          -20.6896934447       18.6087438532        8.2028400000  MEMB      4               0.0000000000
       245         4  CHL1      H16B          -20.6709146173       16.8439191172        8.7281100000  MEMB      4               0.0000000000
       246         4  CHL1      C17           -22.6650453114       17.9006919307        8.9276400000  MEMB      4               0.0000000000
       247         4  CHL1      H17           -22.9768917641       16.8744495344        9.2172900000  MEMB      4               0.0000000000
       248         4  CHL1      C13           -23.0483656186       18.8775014285       10.0716100000  MEMB      4               0.0000000000
       249         4  CHL1      C18           -22.7339775954       20.2527259214        9.5688000000  MEMB      4               0.0000000000
       250         4  CHL1      H18A          -23.3869723964       20.3141063614        8.6720500000  MEMB      4               0.0000000000
       251         4  CHL1      H18B          -23.0343130599       21.1151042484       10.2015800000  MEMB      4               0.0000000000
       252         4  CHL1      H18C          -21.6615215328       20.2868129502        9.2806800000  MEMB      4               0.0000000000
       253         4  CHL1      C12           -24.4513153697       18.7978203861       10.6370500000  MEMB      4               0.0000000000
       254         4  CHL1      H12A          -25.2505741110       19.1283155382        9.9397000000  MEMB      4               0.0000000000
       255         4  CHL1      H12B          -24.7286680507       17.7302744800       10.7701900000  MEMB      4               0.0000000000
       256         4  CHL1      C11           -24.4929206988       19.4392863558       12.0377200000  MEMB      4               0.0000000000
       257         4  CHL1      H11A          -24.4636035202       20.5311717029       11.8346200000  MEMB      4               0.0000000000
       258         4  CHL1      H11B          -25.5094313032       19.2995575919       12.4637600000  MEMB      4               0.0000000000
       259         4  CHL1      C9            -23.4320530821       18.9446903502       13.0372900000  MEMB      4               0.0000000000
       260         4  CHL1      H9            -23.5291333603       17.8423456382       13.1359100000  MEMB      4               0.0000000000
       261         4  CHL1      C10           -23.6883556287       19.5905892053       14.4280500000  MEMB      4               0.0000000000
       262         4  CHL1      C19           -23.8755947924       21.1355246801       14.3241900000  MEMB      4               0.0000000000
       263         4  CHL1      H19A          -23.0626718363       21.8130448827       13.9859100000  MEMB      4               0.0000000000
       264         4  CHL1      H19B          -24.7296690743       21.5175326861       13.7250600000  MEMB      4               0.0000000000
       265         4  CHL1      H19C          -24.1233681198       21.5713515898       15.3156400000  MEMB      4               0.0000000000
       266         4  CHL1      C1            -24.9775758306       18.9961626291       15.1223000000  MEMB      4               0.0000000000
       267         4  CHL1      H1A           -25.9190248766       19.4121218986       14.7040200000  MEMB      4               0.0000000000
       268         4  CHL1      H1B           -25.0157196170       17.8929477898       14.9966600000  MEMB      4               0.0000000000
       269         4  CHL1      C2            -25.0190273758       19.1148084170       16.6047700000  MEMB      4               0.0000000000
       270         4  CHL1      H2A           -25.8285533367       18.4453175994       16.9663900000  MEMB      4               0.0000000000
       271         4  CHL1      H2B           -25.2222577113       20.1942897401       16.7713100000  MEMB      4               0.0000000000
       272         4  CHL1      C20           -23.1798007794       18.0983454525        7.4808900000  MEMB      4               0.0000000000
       273         4  CHL1      H20           -22.8043377888       19.0629458072        7.0772900000  MEMB      4               0.0000000000
       274         4  CHL1      C21           -24.7196324361       18.1284403888        7.4008100000  MEMB      4               0.0000000000
       275         4  CHL1      H21A          -25.0394867378       19.1110091792        7.8089600000  MEMB      4               0.0000000000
       276         4  CHL1      H21B          -25.1606957546       17.2219478605        7.8677700000  MEMB      4               0.0000000000
       277         4  CHL1      H21C          -25.1036234721       18.2257942031        6.3628300000  MEMB      4               0.0000000000
       278         4  CHL1      C22           -22.4746412791       17.0358296476        6.5750300000  MEMB      4               0.0000000000
       279         4  CHL1      H22A          -21.3764439875       17.1898523839        6.6425300000  MEMB      4               0.0000000000
       280         4  CHL1      H22B          -22.7267030349       15.9791571080        6.8079100000  MEMB      4               0.0000000000
       281         4  CHL1      C23           -22.5951907097       17.3212985177        5.0756900000  MEMB      4               0.0000000000
       282         4  CHL1      H23A          -22.1465455395       16.4913096733        4.4890500000  MEMB      4               0.0000000000
       283         4  CHL1      H23B          -23.6651904350       17.5143523899        4.8473100000  MEMB      4               0.0000000000
       284         4  CHL1      C24           -21.9022555599       18.6241860856        4.6159500000  MEMB      4               0.0000000000
       285         4  CHL1      H24A          -22.5318333015       19.4610651462        4.9868900000  MEMB      4               0.0000000000
       286         4  CHL1      H24B          -20.9142376288       18.7626513379        5.1048100000  MEMB      4               0.0000000000
       287         4  CHL1      C25           -21.7154770226       18.6676079523        3.0242300000  MEMB      4               0.0000000000
       288         4  CHL1      H25           -21.2996514401       19.6449820331        2.6984200000  MEMB      4               0.0000000000
       289         4  CHL1      C26           -20.7272351096       17.6899909003        2.4703400000  MEMB      4               0.0000000000
       290         4  CHL1      H26A          -19.7820316732       17.6660710423        3.0537200000  MEMB      4               0.0000000000
       291         4  CHL1      H26B          -21.1638006377       16.6699131375        2.5266100000  MEMB      4               0.0000000000
       292         4  CHL1      H26C          -20.5848213042       18.0325661640        1.4231100000  MEMB      4               0.0000000000
       293         4  CHL1      C27           -23.0653279182       18.4812177699        2.3338000000  MEMB      4               0.0000000000
       294         4  CHL1      H27A          -23.7401389406       17.7878438758        2.8798600000  MEMB      4               0.0000000000
       295         4  CHL1      H27B          -23.5875552271       19.4617409937        2.3199700000  MEMB      4               0.0000000000
       296         4  CHL1      H27C          -23.0101164044       18.0286193240        1.3206800000  MEMB      4               0.0000000000
       297         5  CHL1      C3            -38.6496213873      -47.5351691423       17.3789050000  MEMB      5               0.0000000000
       298         5  CHL1      H3            -38.1484421461      -48.5227995632       17.4667950000  MEMB      5               0.0000000000
       299         5  CHL1      O3            -38.7705252127      -46.9280298577       18.6210950000  MEMB      5               0.0000000000
       300         5  CHL1      H3'           -38.6104160718      -47.6669436893       19.2126650000  MEMB      5               0.0000000000
       301         5  CHL1      C4            -37.7149719832      -46.6497588680       16.5191150000  MEMB      5               0.0000000000
       302         5  CHL1      H4A           -37.8705140724      -45.5594935156       16.6655450000  MEMB      5               0.0000000000
       303         5  CHL1      H4B           -36.6853209725      -46.8541778856       16.8829250000  MEMB      5               0.0000000000
       304         5  CHL1      C5            -37.6872147145      -46.9740413011       15.0258750000  MEMB      5               0.0000000000
       305         5  CHL1      C6            -36.5484847951      -47.1683096845       14.3579750000  MEMB      5               0.0000000000
       306         5  CHL1      H6            -35.6060408391      -46.9651342954       14.8876050000  MEMB      5               0.0000000000
       307         5  CHL1      C7            -36.4860909412      -47.4309926674       12.8525650000  MEMB      5               0.0000000000
       308         5  CHL1      H7A           -35.7215682614      -46.8004970809       12.3502750000  MEMB      5               0.0000000000
       309         5  CHL1      H7B           -36.3162356853      -48.5087876766       12.6432050000  MEMB      5               0.0000000000
       310         5  CHL1      C8            -37.8365044965      -47.0526243799       12.1557850000  MEMB      5               0.0000000000
       311         5  CHL1      H8            -37.7992617055      -45.9429307197       12.1168450000  MEMB      5               0.0000000000
       312         5  CHL1      C14           -37.7871069232      -47.5939434782       10.7294150000  MEMB      5               0.0000000000
       313         5  CHL1      H14           -37.8995673277      -48.6976316225       10.7890150000  MEMB      5               0.0000000000
       314         5  CHL1      C15           -36.6316359173      -47.4122352036        9.8143750000  MEMB      5               0.0000000000
       315         5  CHL1      H15A          -36.4152183892      -46.3248029586        9.8849250000  MEMB      5               0.0000000000
       316         5  CHL1      H15B          -35.6727437750      -47.9624309149        9.9245450000  MEMB      5               0.0000000000
       317         5  CHL1      C16           -37.2792456226      -47.7533612546        8.3843850000  MEMB      5               0.0000000000
       318         5  CHL1      H16A          -37.1321113862      -46.8559015762        7.7462250000  MEMB      5               0.0000000000
       319         5  CHL1      H16B          -36.8397452407      -48.7375798128        8.1152050000  MEMB      5               0.0000000000
       320         5  CHL1      C17           -38.8283566686      -47.9401623137        8.6083750000  MEMB      5               0.0000000000
       321         5  CHL1      H17           -38.9404743046      -49.0393238468        8.7249850000  MEMB      5               0.0000000000
       322         5  CHL1      C13           -39.0119270029      -47.2530189845        9.9614950000  MEMB      5               0.0000000000
       323         5  CHL1      C18           -39.0799947344      -45.7029608847        9.7976550000  MEMB      5               0.0000000000
       324         5  CHL1      H18A          -39.9861416207      -45.3568452148        9.2559750000  MEMB      5               0.0000000000
       325         5  CHL1      H18B          -39.0687750602      -45.1393278511       10.7549950000  MEMB      5               0.0000000000
       326         5  CHL1      H18C          -38.1998761087      -45.4280272982        9.1778750000  MEMB      5               0.0000000000
       327         5  CHL1      C12           -40.2858487919      -47.7916387522       10.6806150000  MEMB      5               0.0000000000
       328         5  CHL1      H12A          -41.2202069613      -47.3163123316       10.3126950000  MEMB      5               0.0000000000
       329         5  CHL1      H12B          -40.3695877709      -48.8958817052       10.5913850000  MEMB      5               0.0000000000
       330         5  CHL1      C11           -40.2646011019      -47.3266692798       12.1526450000  MEMB      5               0.0000000000
       331         5  CHL1      H11A          -40.8273594059      -46.3766005845       12.2751250000  MEMB      5               0.0000000000
       332         5  CHL1      H11B          -41.0300134361      -47.9765179207       12.6282150000  MEMB      5               0.0000000000
       333         5  CHL1      C9            -38.9650443297      -47.5802979833       12.9206750000  MEMB      5               0.0000000000
       334         5  CHL1      H9            -38.8767267900      -48.6824322885       12.8119750000  MEMB      5               0.0000000000
       335         5  CHL1      C10           -39.0665396868      -47.1016699133       14.4030650000  MEMB      5               0.0000000000
       336         5  CHL1      C19           -39.7607887182      -45.7265074619       14.4315950000  MEMB      5               0.0000000000
       337         5  CHL1      H19A          -39.1842789111      -45.0943920967       13.7227950000  MEMB      5               0.0000000000
       338         5  CHL1      H19B          -40.8420990702      -45.8462828380       14.2063150000  MEMB      5               0.0000000000
       339         5  CHL1      H19C          -39.6861096263      -45.4741269323       15.5109650000  MEMB      5               0.0000000000
       340         5  CHL1      C1            -39.9460728707      -48.1799385656       15.2431950000  MEMB      5               0.0000000000
       341         5  CHL1      H1A           -40.9247815388      -47.9813310996       14.7563650000  MEMB      5               0.0000000000
       342         5  CHL1      H1B           -39.5579893498      -49.1985110379       15.0282450000  MEMB      5               0.0000000000
       343         5  CHL1      C2            -40.0511172399      -47.8424418564       16.7709850000  MEMB      5               0.0000000000
       344         5  CHL1      H2A           -40.6225430097      -48.6606761958       17.2591350000  MEMB      5               0.0000000000
       345         5  CHL1      H2B           -40.8022908483      -47.0368728122       16.9163750000  MEMB      5               0.0000000000
       346         5  CHL1      C20           -39.6293989777      -47.4153410511        7.3015950000  MEMB      5               0.0000000000
       347         5  CHL1      H20           -39.3965531104      -46.3307506491        7.2403350000  MEMB      5               0.0000000000
       348         5  CHL1      C21           -41.1274984096      -47.4877913546        7.4635150000  MEMB      5               0.0000000000
       349         5  CHL1      H21A          -41.5879740115      -47.9372267927        6.5578150000  MEMB      5               0.0000000000
       350         5  CHL1      H21B          -41.5485324541      -46.4597206723        7.4745950000  MEMB      5               0.0000000000
       351         5  CHL1      H21C          -41.4518802285      -47.9630096284        8.4139150000  MEMB      5               0.0000000000
       352         5  CHL1      C22           -39.0904225797      -48.0851776673        6.0598250000  MEMB      5               0.0000000000
       353         5  CHL1      H22A          -37.9829276857      -48.0077418089        6.0173750000  MEMB      5               0.0000000000
       354         5  CHL1      H22B          -39.2134036062      -49.1629607733        6.2997650000  MEMB      5               0.0000000000
       355         5  CHL1      C23           -39.6311479969      -47.6650609234        4.6865050000  MEMB      5               0.0000000000
       356         5  CHL1      H23A          -40.5827668337      -48.2170136519        4.5312450000  MEMB      5               0.0000000000
       357         5  CHL1      H23B          -39.9243719741      -46.6045470925        4.5326950000  MEMB      5               0.0000000000
       358         5  CHL1      C24           -38.7482462314      -48.2999928008        3.5311250000  MEMB      5               0.0000000000
       359         5  CHL1      H24A          -37.7670326180      -47.8029696973        3.3745550000  MEMB      5               0.0000000000
       360         5  CHL1      H24B          -38.5985333536      -49.3836305749        3.7251350000  MEMB      5               0.0000000000
       361         5  CHL1      C25           -39.5726858238      -48.2292563311        2.2579650000  MEMB      5               0.0000000000
       362         5  CHL1      H25           -40.6159961067      -48.6086364661        2.3016950000  MEMB      5               0.0000000000
       363         5  CHL1      C26           -39.4633992601      -46.8205214073        1.6241250000  MEMB      5               0.0000000000
       364         5  CHL1      H26A          -38.3741832547      -46.6195357908        1.7110150000  MEMB      5               0.0000000000
       365         5  CHL1      H26B          -39.8616592231      -46.7101943266        0.5928450000  MEMB      5               0.0000000000
       366         5  CHL1      H26C          -40.0552641966      -46.1329907977        2.2654750000  MEMB      5               0.0000000000
       367         5  CHL1      C27           -38.7668793748      -49.1871493279        1.2812250000  MEMB      5               0.0000000000
       368         5  CHL1      H27A          -39.1877292699      -49.1147896735        0.2555750000  MEMB      5               0.0000000000
       369         5  CHL1      H27B          -37.6883915438      -48.9325586708        1.2014950000  MEMB      5               0.0000000000
       370         5  CHL1      H27C          -38.8423374476      -50.2330740933        1.6482050000  MEMB      5               0.0000000000
       371         6  CHL1      C3             42.0088856333      -37.3060912578       17.3549650000  MEMB      6               0.0000000000
       372         6  CHL1      H3             40.9128233056      -37.1276641703       17.3214750000  MEMB      6               0.0000000000
       373         6  CHL1      O3             42.5085611667      -37.1113325422       18.6450350000  MEMB      6               0.0000000000
       374         6  CHL1      H3'            41.9119709006      -37.4723108734       19.3048650000  MEMB      6               0.0000000000
       375         6  CHL1      C4             42.3212615270      -38.7154543675       16.8100850000  MEMB      6               0.0000000000
       376         6  CHL1      H4A            43.4115767405      -38.9093936818       16.8990750000  MEMB      6               0.0000000000
       377         6  CHL1      H4B            41.8274300083      -39.5009113736       17.4212250000  MEMB      6               0.0000000000
       378         6  CHL1      C5             41.9641418298      -38.8173739921       15.3231050000  MEMB      6               0.0000000000
       379         6  CHL1      C6             41.2102197163      -39.7643804389       14.7728050000  MEMB      6               0.0000000000
       380         6  CHL1      H6             40.7856789325      -40.5422855869       15.4244350000  MEMB      6               0.0000000000
       381         6  CHL1      C7             40.8679680034      -39.8546553074       13.3490850000  MEMB      6               0.0000000000
       382         6  CHL1      H7A            40.7483109355      -40.9351090064       13.1197050000  MEMB      6               0.0000000000
       383         6  CHL1      H7B            39.8384194938      -39.4904475489       13.1448550000  MEMB      6               0.0000000000
       384         6  CHL1      C8             41.7681991324      -39.0850499431       12.3717750000  MEMB      6               0.0000000000
       385         6  CHL1      H8             42.7101607821      -39.6683467770       12.2892450000  MEMB      6               0.0000000000
       386         6  CHL1      C14            41.0835873854      -38.9602904158       10.9606450000  MEMB      6               0.0000000000
       387         6  CHL1      H14            40.1842634786      -38.3265527821       11.1152850000  MEMB      6               0.0000000000
       388         6  CHL1      C15            40.5464555303      -40.1474807207       10.2993150000  MEMB      6               0.0000000000
       389         6  CHL1      H15A           41.1926746699      -41.0479168737       10.3763250000  MEMB      6               0.0000000000
       390         6  CHL1      H15B           39.4924832707      -40.3071828336       10.6123150000  MEMB      6               0.0000000000
       391         6  CHL1      C16            40.5043245701      -39.7168334225        8.8034850000  MEMB      6               0.0000000000
       392         6  CHL1      H16A           40.8621199858      -40.5233248443        8.1283150000  MEMB      6               0.0000000000
       393         6  CHL1      H16B           39.4297901672      -39.5702326645        8.5622150000  MEMB      6               0.0000000000
       394         6  CHL1      C17            41.1452162315      -38.3349384697        8.6551650000  MEMB      6               0.0000000000
       395         6  CHL1      H17            40.3434986784      -37.5706595298        8.5689550000  MEMB      6               0.0000000000
       396         6  CHL1      C13            41.9536950453      -38.1536052739       10.0292650000  MEMB      6               0.0000000000
       397         6  CHL1      C18            43.3631616117      -38.9687981144        9.9189050000  MEMB      6               0.0000000000
       398         6  CHL1      H18A           43.9570721578      -38.9225817785       10.8566950000  MEMB      6               0.0000000000
       399         6  CHL1      H18B           43.2158175958      -40.0205259729        9.5926150000  MEMB      6               0.0000000000
       400         6  CHL1      H18C           43.9921124120      -38.4830467543        9.1425050000  MEMB      6               0.0000000000
       401         6  CHL1      C12            42.2060327073      -36.6833211673       10.5758050000  MEMB      6               0.0000000000
       402         6  CHL1      H12A           42.9007138874      -36.0909579952        9.9426750000  MEMB      6               0.0000000000
       403         6  CHL1      H12B           41.2436259877      -36.1421208975       10.6991150000  MEMB      6               0.0000000000
       404         6  CHL1      C11            42.8189259517      -36.6972957150       11.9561050000  MEMB      6               0.0000000000
       405         6  CHL1      H11A           43.8447098435      -37.0734402131       11.7546050000  MEMB      6               0.0000000000
       406         6  CHL1      H11B           42.9068834136      -35.6612943216       12.3476250000  MEMB      6               0.0000000000
       407         6  CHL1      C9             42.0883165901      -37.6987174731       12.9727850000  MEMB      6               0.0000000000
       408         6  CHL1      H9             41.1018387075      -37.1887749322       13.0065050000  MEMB      6               0.0000000000
       409         6  CHL1      C10            42.6106829229      -37.7099174419       14.4626650000  MEMB      6               0.0000000000
       410         6  CHL1      C19            44.0966461268      -37.8213760494       14.3774050000  MEMB      6               0.0000000000
       411         6  CHL1      H19A           44.6099367350      -37.8737848392       15.3613350000  MEMB      6               0.0000000000
       412         6  CHL1      H19B           44.3134808745      -38.7963747455       13.8908850000  MEMB      6               0.0000000000
       413         6  CHL1      H19C           44.6837719439      -37.0436716108       13.8437550000  MEMB      6               0.0000000000
       414         6  CHL1      C1             42.3943560065      -36.3273634194       15.0622650000  MEMB      6               0.0000000000
       415         6  CHL1      H1A            43.0633930000      -35.5717204803       14.5978250000  MEMB      6               0.0000000000
       416         6  CHL1      H1B            41.3583289748      -36.0265873403       14.7967150000  MEMB      6               0.0000000000
       417         6  CHL1      C2             42.6878193251      -36.2165285515       16.5327750000  MEMB      6               0.0000000000
       418         6  CHL1      H2A            42.2597415370      -35.2545548345       16.8872550000  MEMB      6               0.0000000000
       419         6  CHL1      H2B            43.7719512904      -36.0666034858       16.7238450000  MEMB      6               0.0000000000
       420         6  CHL1      C20            41.9041461725      -38.1078810823        7.3177550000  MEMB      6               0.0000000000
       421         6  CHL1      H20            42.6890202351      -38.8920537706        7.3758750000  MEMB      6               0.0000000000
       422         6  CHL1      C21            42.7271473194      -36.8078210734        7.3304950000  MEMB      6               0.0000000000
       423         6  CHL1      H21A           42.0845976378      -35.9061590419        7.4225250000  MEMB      6               0.0000000000
       424         6  CHL1      H21B           43.2245300801      -36.5933793856        6.3604750000  MEMB      6               0.0000000000
       425         6  CHL1      H21C           43.5176445442      -36.6770522788        8.1001250000  MEMB      6               0.0000000000
       426         6  CHL1      C22            41.0026802068      -38.4089923377        6.0972850000  MEMB      6               0.0000000000
       427         6  CHL1      H22A           40.4782985489      -39.3881328433        6.1222250000  MEMB      6               0.0000000000
       428         6  CHL1      H22B           40.1637704827      -37.6807493426        6.0826150000  MEMB      6               0.0000000000
       429         6  CHL1      C23            41.7851582431      -38.2832278928        4.7241350000  MEMB      6               0.0000000000
       430         6  CHL1      H23A           42.3724538000      -37.3438202038        4.6410350000  MEMB      6               0.0000000000
       431         6  CHL1      H23B           42.5447468757      -39.0904347369        4.6481950000  MEMB      6               0.0000000000
       432         6  CHL1      C24            40.9067114754      -38.4786955506        3.4365950000  MEMB      6               0.0000000000
       433         6  CHL1      H24A           40.5358768712      -39.5242384410        3.4971150000  MEMB      6               0.0000000000
       434         6  CHL1      H24B           40.0098537738      -37.8265637919        3.5051050000  MEMB      6               0.0000000000
       435         6  CHL1      C25            41.6955549423      -38.1648324406        2.1592450000  MEMB      6               0.0000000000
       436         6  CHL1      H25            42.6684096461      -38.6897537231        2.2703450000  MEMB      6               0.0000000000
       437         6  CHL1      C26            40.9790301179      -38.6955818139        0.8839050000  MEMB      6               0.0000000000
       438         6  CHL1      H26A           39.9303020742      -38.3306082419        0.9197450000  MEMB      6               0.0000000000
       439         6  CHL1      H26B           41.4993007093      -38.5262749664       -0.0830350000  MEMB      6               0.0000000000
       440         6  CHL1      H26C           40.8702960018      -39.7958882237        0.9926750000  MEMB      6               0.0000000000
       441         6  CHL1      C27            41.8941884634      -36.7010026536        1.9350750000  MEMB      6               0.0000000000
       442         6  CHL1      H27A           42.3819502834      -36.6098330973        0.9410450000  MEMB      6               0.0000000000
       443         6  CHL1      H27B           40.9224071360      -36.1630529268        1.9110950000  MEMB      6               0.0000000000
       444         6  CHL1      H27C           42.5867264771      -36.3303963920        2.7207950000  MEMB      6               0.0000000000
       445         7  CHL1      C3             41.2526226605       12.7094343289       17.5138750000  MEMB      7               0.0000000000
       446         7  CHL1      H3             40.7239702515       11.9005340499       18.0620750000  MEMB      7               0.0000000000
       447         7  CHL1      O3             41.7785739395       13.5954506711       18.4861250000  MEMB      7               0.0000000000
       448         7  CHL1      H3'            41.0797033936       13.9663870351       19.0298050000  MEMB      7               0.0000000000
       449         7  CHL1      C4             42.4569429416       12.2158293800       16.6395750000  MEMB      7               0.0000000000
       450         7  CHL1      H4A            43.1211835507       13.0509577544       16.3302850000  MEMB      7               0.0000000000
       451         7  CHL1      H4B            43.0831909834       11.5618031702       17.2832850000  MEMB      7               0.0000000000
       452         7  CHL1      C5             41.9531166642       11.3692373819       15.4917150000  MEMB      7               0.0000000000
       453         7  CHL1      C6             42.3861119967       10.0905600666       15.2779550000  MEMB      7               0.0000000000
       454         7  CHL1      H6             43.1029454090        9.5619156925       15.9234550000  MEMB      7               0.0000000000
       455         7  CHL1      C7             41.9558104008        9.2718521090       14.0681150000  MEMB      7               0.0000000000
       456         7  CHL1      H7A            42.7935383660        8.6856934090       13.6334250000  MEMB      7               0.0000000000
       457         7  CHL1      H7B            41.1286181589        8.6620098908       14.4902150000  MEMB      7               0.0000000000
       458         7  CHL1      C8             41.3765492200       10.1304432068       12.9404350000  MEMB      7               0.0000000000
       459         7  CHL1      H8             42.1153029549       10.7488697532       12.3871650000  MEMB      7               0.0000000000
       460         7  CHL1      C14            40.6236589062        9.2254020664       11.9756750000  MEMB      7               0.0000000000
       461         7  CHL1      H14            39.8087269492        8.6848349254       12.5029050000  MEMB      7               0.0000000000
       462         7  CHL1      C15            41.3979853622        8.0250880700       11.3605950000  MEMB      7               0.0000000000
       463         7  CHL1      H15A           42.4398764559        8.3091711071       11.0996950000  MEMB      7               0.0000000000
       464         7  CHL1      H15B           41.5257583048        7.1964880099       12.0895850000  MEMB      7               0.0000000000
       465         7  CHL1      C16            40.6409401422        7.6944655572       10.0857150000  MEMB      7               0.0000000000
       466         7  CHL1      H16A           41.3569334477        7.5886251273        9.2428250000  MEMB      7               0.0000000000
       467         7  CHL1      H16B           40.0955618035        6.7328890492       10.1963250000  MEMB      7               0.0000000000
       468         7  CHL1      C17            39.5768956358        8.8352018451        9.8979650000  MEMB      7               0.0000000000
       469         7  CHL1      H17            38.6094734612        8.6144212930       10.3976450000  MEMB      7               0.0000000000
       470         7  CHL1      C13            40.1303293666       10.0170556320       10.7501150000  MEMB      7               0.0000000000
       471         7  CHL1      C18            41.3390036052       10.7448224785        9.9756850000  MEMB      7               0.0000000000
       472         7  CHL1      H18A           40.9637029284       11.1422425128        9.0084550000  MEMB      7               0.0000000000
       473         7  CHL1      H18B           42.0412178503       11.4002959638       10.5338750000  MEMB      7               0.0000000000
       474         7  CHL1      H18C           41.9607412511        9.8735924244        9.6778450000  MEMB      7               0.0000000000
       475         7  CHL1      C12            39.0231454251       11.0251678737       11.1945150000  MEMB      7               0.0000000000
       476         7  CHL1      H12A           38.6453800429       11.6892355230       10.3879050000  MEMB      7               0.0000000000
       477         7  CHL1      H12B           38.1158033797       10.4607433910       11.4986350000  MEMB      7               0.0000000000
       478         7  CHL1      C11            39.6901987841       11.9571319798       12.3002650000  MEMB      7               0.0000000000
       479         7  CHL1      H11A           40.5103565844       12.5153504483       11.8002150000  MEMB      7               0.0000000000
       480         7  CHL1      H11B           38.9858108501       12.7520380667       12.6262850000  MEMB      7               0.0000000000
       481         7  CHL1      C9             40.3521999648       11.1366907107       13.4863750000  MEMB      7               0.0000000000
       482         7  CHL1      H9             39.5200053180       10.5516468079       13.9330250000  MEMB      7               0.0000000000
       483         7  CHL1      C10            40.8740567098       12.1053830554       14.5489550000  MEMB      7               0.0000000000
       484         7  CHL1      C19            41.6099915408       13.3009588149       13.8983650000  MEMB      7               0.0000000000
       485         7  CHL1      H19A           42.3913000298       13.0563598623       13.1473350000  MEMB      7               0.0000000000
       486         7  CHL1      H19B           40.7195358160       13.8604320326       13.5400250000  MEMB      7               0.0000000000
       487         7  CHL1      H19C           42.0578175360       13.9389963966       14.6899950000  MEMB      7               0.0000000000
       488         7  CHL1      C1             39.7652498887       12.6804294721       15.4305350000  MEMB      7               0.0000000000
       489         7  CHL1      H1A            38.9970135662       13.2441619244       14.8592750000  MEMB      7               0.0000000000
       490         7  CHL1      H1B            39.2619425628       11.7815953771       15.8465850000  MEMB      7               0.0000000000
       491         7  CHL1      C2             40.2088240444       13.5148183626       16.6625250000  MEMB      7               0.0000000000
       492         7  CHL1      H2A            39.3553560552       13.6500587438       17.3608250000  MEMB      7               0.0000000000
       493         7  CHL1      H2B            40.5604175678       14.5105273457       16.3171550000  MEMB      7               0.0000000000
       494         7  CHL1      C20            39.3955512537        9.0273068610        8.3936950000  MEMB      7               0.0000000000
       495         7  CHL1      H20            40.3672936828        9.2693311086        7.9125950000  MEMB      7               0.0000000000
       496         7  CHL1      C21            38.3796980005       10.0805353201        8.0537750000  MEMB      7               0.0000000000
       497         7  CHL1      H21A           37.4265330785        9.7451271529        8.5156050000  MEMB      7               0.0000000000
       498         7  CHL1      H21B           38.1873213339       10.0529170535        6.9599050000  MEMB      7               0.0000000000
       499         7  CHL1      H21C           38.6342575606       11.1108234757        8.3824550000  MEMB      7               0.0000000000
       500         7  CHL1      C22            38.8303729821        7.7093629769        7.7432750000  MEMB      7               0.0000000000
       501         7  CHL1      H22A           39.0775722992        6.8049314908        8.3392750000  MEMB      7               0.0000000000
       502         7  CHL1      H22B           37.7199001785        7.7421784105        7.7532650000  MEMB      7               0.0000000000
       503         7  CHL1      C23            39.2407571096        7.3546050472        6.3857150000  MEMB      7               0.0000000000
       504         7  CHL1      H23A           39.4583806829        8.2619580228        5.7826750000  MEMB      7               0.0000000000
       505         7  CHL1      H23B           40.2451429091        6.8938497234        6.5007550000  MEMB      7               0.0000000000
       506         7  CHL1      C24            38.1821307203        6.6043519395        5.5665150000  MEMB      7               0.0000000000
       507         7  CHL1      H24A           38.0170697035        5.6475493182        6.1065150000  MEMB      7               0.0000000000
       508         7  CHL1      H24B           37.2930628704        7.2705466935        5.5751550000  MEMB      7               0.0000000000
       509         7  CHL1      C25            38.5127315269        6.3401022476        4.0528250000  MEMB      7               0.0000000000
       510         7  CHL1      H25            38.8135933547        7.3024496546        3.5862350000  MEMB      7               0.0000000000
       511         7  CHL1      C26            39.5877705318        5.2976652109        3.9533050000  MEMB      7               0.0000000000
       512         7  CHL1      H26A           39.4244968702        4.3482802619        4.5067850000  MEMB      7               0.0000000000
       513         7  CHL1      H26B           39.8269922101        5.0042900163        2.9087850000  MEMB      7               0.0000000000
       514         7  CHL1      H26C           40.4991580527        5.7768182926        4.3705550000  MEMB      7               0.0000000000
       515         7  CHL1      C27            37.2636766048        5.9115529270        3.2791250000  MEMB      7               0.0000000000
       516         7  CHL1      H27A           37.3246227530        6.0211863344        2.1752250000  MEMB      7               0.0000000000
       517         7  CHL1      H27B           36.9007754177        4.9260033996        3.6414750000  MEMB      7               0.0000000000
       518         7  CHL1      H27C           36.4356310639        6.6128916651        3.5174450000  MEMB      7               0.0000000000
       519         8  CHL1      C3             34.5448449630      -49.8441768767       17.3175750000  MEMB      8               0.0000000000
       520         8  CHL1      H3             35.2926827976      -49.2380513846       16.7628850000  MEMB      8               0.0000000000
       521         8  CHL1      O3             34.6934262370      -49.4821755233       18.6824250000  MEMB      8               0.0000000000
       522         8  CHL1      H3'            34.5607304879      -48.5313874175       18.6824650000  MEMB      8               0.0000000000
       523         8  CHL1      C4             33.1550976909      -49.5089534145       16.8351950000  MEMB      8               0.0000000000
       524         8  CHL1      H4A            32.4209649366      -50.0405586450       17.4776650000  MEMB      8               0.0000000000
       525         8  CHL1      H4B            32.9683975858      -48.4197227721       16.9493650000  MEMB      8               0.0000000000
       526         8  CHL1      C5             33.0414314004      -49.8865170918       15.3606550000  MEMB      8               0.0000000000
       527         8  CHL1      C6             32.9073901600      -48.9757791102       14.4069150000  MEMB      8               0.0000000000
       528         8  CHL1      H6             32.9004320004      -47.9154149109       14.6994650000  MEMB      8               0.0000000000
       529         8  CHL1      C7             32.8163965775      -49.3466408691       12.9550550000  MEMB      8               0.0000000000
       530         8  CHL1      H7A            31.9539722421      -48.8642738795       12.4472450000  MEMB      8               0.0000000000
       531         8  CHL1      H7B            33.6775417827      -48.8402057465       12.4689750000  MEMB      8               0.0000000000
       532         8  CHL1      C8             32.6080489204      -50.8252603922       12.6203550000  MEMB      8               0.0000000000
       533         8  CHL1      H8             31.5246853641      -50.9789916286       12.8127050000  MEMB      8               0.0000000000
       534         8  CHL1      C14            32.7895362591      -51.0792417626       11.1647050000  MEMB      8               0.0000000000
       535         8  CHL1      H14            33.8554380268      -50.9557452816       10.8767350000  MEMB      8               0.0000000000
       536         8  CHL1      C15            31.9246010508      -50.1747321587       10.2874250000  MEMB      8               0.0000000000
       537         8  CHL1      H15A           30.8707237000      -50.0505464854       10.6164250000  MEMB      8               0.0000000000
       538         8  CHL1      H15B           32.2997478955      -49.1343112326       10.1819950000  MEMB      8               0.0000000000
       539         8  CHL1      C16            31.8981407552      -50.9186374537        8.9725950000  MEMB      8               0.0000000000
       540         8  CHL1      H16A           30.8455934229      -50.9853201902        8.6232550000  MEMB      8               0.0000000000
       541         8  CHL1      H16B           32.5044176509      -50.3567239089        8.2302950000  MEMB      8               0.0000000000
       542         8  CHL1      C17            32.5377894611      -52.3281921614        9.1340050000  MEMB      8               0.0000000000
       543         8  CHL1      H17            33.6172908985      -52.1891218471        8.9111550000  MEMB      8               0.0000000000
       544         8  CHL1      C13            32.4908897109      -52.5707052215       10.6977550000  MEMB      8               0.0000000000
       545         8  CHL1      C18            31.0783867960      -52.9298668479       11.2083450000  MEMB      8               0.0000000000
       546         8  CHL1      H18A           30.2505115757      -52.2847493853       10.8439750000  MEMB      8               0.0000000000
       547         8  CHL1      H18B           30.8279098625      -53.9428137740       10.8268450000  MEMB      8               0.0000000000
       548         8  CHL1      H18C           30.9923776563      -52.9227354255       12.3159850000  MEMB      8               0.0000000000
       549         8  CHL1      C12            33.5922586932      -53.4142763227       11.5127450000  MEMB      8               0.0000000000
       550         8  CHL1      H12A           33.4985562471      -54.4965819229       11.2800150000  MEMB      8               0.0000000000
       551         8  CHL1      H12B           34.5860784724      -53.1469352871       11.0942150000  MEMB      8               0.0000000000
       552         8  CHL1      C11            33.5910247381      -53.1654716396       13.0579550000  MEMB      8               0.0000000000
       553         8  CHL1      H11A           32.6302326691      -53.5522717128       13.4599450000  MEMB      8               0.0000000000
       554         8  CHL1      H11B           34.4670882897      -53.6782522738       13.5094950000  MEMB      8               0.0000000000
       555         8  CHL1      C9             33.5893953554      -51.6102410960       13.4837650000  MEMB      8               0.0000000000
       556         8  CHL1      H9             34.6202239831      -51.2837093547       13.2286350000  MEMB      8               0.0000000000
       557         8  CHL1      C10            33.2680983359      -51.3328209191       15.0489950000  MEMB      8               0.0000000000
       558         8  CHL1      C19            31.9836975505      -52.0624938830       15.4650450000  MEMB      8               0.0000000000
       559         8  CHL1      H19A           31.9583503736      -53.1524167584       15.2511850000  MEMB      8               0.0000000000
       560         8  CHL1      H19B           31.8226651391      -51.9854282715       16.5616150000  MEMB      8               0.0000000000
       561         8  CHL1      H19C           31.1400635302      -51.5421767042       14.9631750000  MEMB      8               0.0000000000
       562         8  CHL1      C1             34.4828872960      -51.9079326135       15.8482850000  MEMB      8               0.0000000000
       563         8  CHL1      H1A            34.2897170847      -53.0019568735       15.8376050000  MEMB      8               0.0000000000
       564         8  CHL1      H1B            35.3834590685      -51.6202342980       15.2647550000  MEMB      8               0.0000000000
       565         8  CHL1      C2             34.6503829792      -51.4014935852       17.1863150000  MEMB      8               0.0000000000
       566         8  CHL1      H2A            35.6812863766      -51.6992774701       17.4742350000  MEMB      8               0.0000000000
       567         8  CHL1      H2B            34.0912456059      -51.8905172293       18.0124750000  MEMB      8               0.0000000000
       568         8  CHL1      C20            31.8566729745      -53.3710939511        8.2487650000  MEMB      8               0.0000000000
       569         8  CHL1      H20            30.8002758311      -53.5239104357        8.5569550000  MEMB      8               0.0000000000
       570         8  CHL1      C21            32.6119665928      -54.6793067118        8.2033550000  MEMB      8               0.0000000000
       571         8  CHL1      H21A           33.0789742769      -54.9330810853        9.1789750000  MEMB      8               0.0000000000
       572         8  CHL1      H21B           33.3665230007      -54.8952502093        7.4170150000  MEMB      8               0.0000000000
       573         8  CHL1      H21C           31.8455100652      -55.4694520951        8.0532050000  MEMB      8               0.0000000000
       574         8  CHL1      C22            31.7973491354      -52.9375562123        6.8117550000  MEMB      8               0.0000000000
       575         8  CHL1      H22A           31.3105592173      -51.9550481440        6.6327550000  MEMB      8               0.0000000000
       576         8  CHL1      H22B           32.8520231401      -52.8167855042        6.4840350000  MEMB      8               0.0000000000
       577         8  CHL1      C23            31.1942192905      -53.9025543474        5.7676450000  MEMB      8               0.0000000000
       578         8  CHL1      H23A           31.8239578490      -54.8139124880        5.6830350000  MEMB      8               0.0000000000
       579         8  CHL1      H23B           30.2047535799      -54.2036614945        6.1733650000  MEMB      8               0.0000000000
       580         8  CHL1      C24            31.0096327419      -53.1571163305        4.4462450000  MEMB      8               0.0000000000
       581         8  CHL1      H24A           30.6160419197      -52.1520013755        4.7092150000  MEMB      8               0.0000000000
       582         8  CHL1      H24B           32.0320788830      -53.0679520285        4.0208350000  MEMB      8               0.0000000000
       583         8  CHL1      C25            30.1249838849      -53.8585548491        3.3727350000  MEMB      8               0.0000000000
       584         8  CHL1      H25            29.0790125224      -53.9686361503        3.7307050000  MEMB      8               0.0000000000
       585         8  CHL1      C26            30.1196327625      -53.0076495667        2.0328750000  MEMB      8               0.0000000000
       586         8  CHL1      H26A           29.1661754905      -53.1081826706        1.4715150000  MEMB      8               0.0000000000
       587         8  CHL1      H26B           30.2460158366      -51.9939860933        2.4697150000  MEMB      8               0.0000000000
       588         8  CHL1      H26C           30.9433762438      -53.2924641966        1.3439250000  MEMB      8               0.0000000000
       589         8  CHL1      C27            30.6868396846      -55.2045045086        2.9355850000  MEMB      8               0.0000000000
       590         8  CHL1      H27A           30.0515829531      -55.6349361413        2.1321550000  MEMB      8               0.0000000000
       591         8  CHL1      H27B           31.7325757052      -55.1283406839        2.5682150000  MEMB      8               0.0000000000
       592         8  CHL1      H27C           30.6754353507      -55.8776126617        3.8193950000  MEMB      8               0.0000000000
       593         9  CHL1      C3             49.2144394139      -50.5146179155       17.2968050000  MEMB      9               0.0000000000
       594         9  CHL1      H3             49.0612623514      -51.5717094224       16.9911650000  MEMB      9               0.0000000000
       595         9  CHL1      O3             49.4214901861      -50.5818684845       18.7031950000  MEMB      9               0.0000000000
       596         9  CHL1      H3'            48.6333186570      -51.0484686853       18.9907250000  MEMB      9               0.0000000000
       597         9  CHL1      C4             50.5002403471      -50.0021124573       16.6174850000  MEMB      9               0.0000000000
       598         9  CHL1      H4A            50.7110091136      -49.0044832756       17.0586650000  MEMB      9               0.0000000000
       599         9  CHL1      H4B            51.3462189663      -50.6856227651       16.8442850000  MEMB      9               0.0000000000
       600         9  CHL1      C5             50.4983037964      -49.6897772240       15.1358450000  MEMB      9               0.0000000000
       601         9  CHL1      C6             51.4857085204      -50.1259125376       14.3382650000  MEMB      9               0.0000000000
       602         9  CHL1      H6             52.2836685624      -50.7200174902       14.8076450000  MEMB      9               0.0000000000
       603         9  CHL1      C7             51.4961690760      -50.0053391293       12.8549550000  MEMB      9               0.0000000000
       604         9  CHL1      H7A            52.5044754714      -49.6887855572       12.5122750000  MEMB      9               0.0000000000
       605         9  CHL1      H7B            51.2022346313      -50.9567511750       12.3622550000  MEMB      9               0.0000000000
       606         9  CHL1      C8             50.4385446755      -48.9848143135       12.4248650000  MEMB      9               0.0000000000
       607         9  CHL1      H8             50.8524343208      -47.9723326848       12.6195250000  MEMB      9               0.0000000000
       608         9  CHL1      C14            50.1736841442      -49.0127736864       10.8924450000  MEMB      9               0.0000000000
       609         9  CHL1      H14            49.8226581513      -50.0079699774       10.5450450000  MEMB      9               0.0000000000
       610         9  CHL1      C15            51.4809554364      -48.8511890564       10.0873050000  MEMB      9               0.0000000000
       611         9  CHL1      H15A           52.1238091073      -48.0626518672       10.5336950000  MEMB      9               0.0000000000
       612         9  CHL1      H15B           52.0833260072      -49.7696617467       10.2543050000  MEMB      9               0.0000000000
       613         9  CHL1      C16            51.0326791224      -48.6043300471        8.6458650000  MEMB      9               0.0000000000
       614         9  CHL1      H16A           51.5750524954      -47.6907946783        8.3208950000  MEMB      9               0.0000000000
       615         9  CHL1      H16B           51.2860866618      -49.4844897490        8.0170350000  MEMB      9               0.0000000000
       616         9  CHL1      C17            49.4484006377      -48.2919547769        8.8155950000  MEMB      9               0.0000000000
       617         9  CHL1      H17            48.8943964014      -49.2333193591        8.6125050000  MEMB      9               0.0000000000
       618         9  CHL1      C13            49.2580246885      -47.9649681919       10.2775150000  MEMB      9               0.0000000000
       619         9  CHL1      C18            49.7269040892      -46.5049248663       10.5050050000  MEMB      9               0.0000000000
       620         9  CHL1      H18A           49.1443099233      -45.7598574640        9.9221050000  MEMB      9               0.0000000000
       621         9  CHL1      H18B           49.6230462371      -46.1647868339       11.5575450000  MEMB      9               0.0000000000
       622         9  CHL1      H18C           50.8108021610      -46.4441754435       10.2687850000  MEMB      9               0.0000000000
       623         9  CHL1      C12            47.8816728649      -48.0875104707       10.9846350000  MEMB      9               0.0000000000
       624         9  CHL1      H12A           47.3360364023      -47.1587855920       10.7124550000  MEMB      9               0.0000000000
       625         9  CHL1      H12B           47.3676760076      -48.9973200705       10.6073150000  MEMB      9               0.0000000000
       626         9  CHL1      C11            47.9748156062      -48.1442260262       12.5264350000  MEMB      9               0.0000000000
       627         9  CHL1      H11A           48.1707925290      -47.0835220322       12.7925550000  MEMB      9               0.0000000000
       628         9  CHL1      H11B           47.0289066293      -48.5890633194       12.9028650000  MEMB      9               0.0000000000
       629         9  CHL1      C9             49.1356667444      -49.0398986994       13.1102750000  MEMB      9               0.0000000000
       630         9  CHL1      H9             48.7129439581      -50.0334861988       12.8487450000  MEMB      9               0.0000000000
       631         9  CHL1      C10            49.2218617183      -48.9609364338       14.6557050000  MEMB      9               0.0000000000
       632         9  CHL1      C19            49.4036965786      -47.5396936041       15.0994150000  MEMB      9               0.0000000000
       633         9  CHL1      H19A           49.7422406083      -47.4715038127       16.1553850000  MEMB      9               0.0000000000
       634         9  CHL1      H19B           50.1978693863      -46.9418836024       14.6031850000  MEMB      9               0.0000000000
       635         9  CHL1      H19C           48.4708439151      -46.9386312702       15.0462850000  MEMB      9               0.0000000000
       636         9  CHL1      C1             47.8913308115      -49.3771787612       15.3739750000  MEMB      9               0.0000000000
       637         9  CHL1      H1A            46.9832826811      -48.7627689619       15.1943550000  MEMB      9               0.0000000000
       638         9  CHL1      H1B            47.6201707561      -50.3649428768       14.9437150000  MEMB      9               0.0000000000
       639         9  CHL1      C2             48.0408504509      -49.5564722656       16.9235250000  MEMB      9               0.0000000000
       640         9  CHL1      H2A            47.0816054203      -49.9293651818       17.3419950000  MEMB      9               0.0000000000
       641         9  CHL1      H2B            48.2849159104      -48.5453566153       17.3138950000  MEMB      9               0.0000000000
       642         9  CHL1      C20            48.8452547669      -47.3238424259        7.7866550000  MEMB      9               0.0000000000
       643         9  CHL1      H20            49.2663338139      -46.3087079681        7.9494950000  MEMB      9               0.0000000000
       644         9  CHL1      C21            47.3575655196      -47.3503660994        7.8503750000  MEMB      9               0.0000000000
       645         9  CHL1      H21A           46.7762842057      -46.5969618320        7.2769550000  MEMB      9               0.0000000000
       646         9  CHL1      H21B           46.9888233768      -47.1180182036        8.8723150000  MEMB      9               0.0000000000
       647         9  CHL1      H21C           46.9487674572      -48.3159289281        7.4830950000  MEMB      9               0.0000000000
       648         9  CHL1      C22            49.3881663573      -47.5694179447        6.3468050000  MEMB      9               0.0000000000
       649         9  CHL1      H22A           50.4931275589      -47.6843073809        6.3332750000  MEMB      9               0.0000000000
       650         9  CHL1      H22B           48.9815408274      -48.5781077893        6.1198050000  MEMB      9               0.0000000000
       651         9  CHL1      C23            48.9254129237      -46.6028337093        5.3434250000  MEMB      9               0.0000000000
       652         9  CHL1      H23A           47.8262382398      -46.4414096160        5.3360150000  MEMB      9               0.0000000000
       653         9  CHL1      H23B           49.5042170080      -45.6636199511        5.4745550000  MEMB      9               0.0000000000
       654         9  CHL1      C24            49.4395623860      -46.8757691145        3.9206350000  MEMB      9               0.0000000000
       655         9  CHL1      H24A           50.5027616683      -46.5657777496        3.8320350000  MEMB      9               0.0000000000
       656         9  CHL1      H24B           49.3329581815      -47.9615811977        3.7109550000  MEMB      9               0.0000000000
       657         9  CHL1      C25            48.6799796328      -46.1350701982        2.7985550000  MEMB      9               0.0000000000
       658         9  CHL1      H25            47.5944799958      -46.0689797589        3.0257950000  MEMB      9               0.0000000000
       659         9  CHL1      C26            49.1900027085      -44.6574212568        2.6944150000  MEMB      9               0.0000000000
       660         9  CHL1      H26A           49.0983957757      -44.2092437341        3.7068650000  MEMB      9               0.0000000000
       661         9  CHL1      H26B           50.2749390287      -44.6387454747        2.4558550000  MEMB      9               0.0000000000
       662         9  CHL1      H26C           48.6191064822      -43.9983135474        2.0059550000  MEMB      9               0.0000000000
       663         9  CHL1      C27            48.7732527531      -46.7173793813        1.3732450000  MEMB      9               0.0000000000
       664         9  CHL1      H27A           48.0926666554      -46.1762551610        0.6816450000  MEMB      9               0.0000000000
       665         9  CHL1      H27B           49.8447065968      -46.5592719564        1.1256150000  MEMB      9               0.0000000000
       666         9  CHL1      H27C           48.5680729749      -47.7942655986        1.1928750000  MEMB      9               0.0000000000
       667        10  CHL1      C3             33.8358981396       42.8282399829       17.3996350000  MEMB      10              0.0000000000
       668        10  CHL1      H3             32.7755095106       42.5574949685       17.5909350000  MEMB      10              0.0000000000
       669        10  CHL1      O3             34.6481550604       42.9716496171       18.6003650000  MEMB      10              0.0000000000
       670        10  CHL1      H3'            34.5753075948       42.2355866834       19.2123350000  MEMB      10              0.0000000000
       671        10  CHL1      C4             34.4647941330       41.6901318276       16.6027350000  MEMB      10              0.0000000000
       672        10  CHL1      H4A            35.5702895987       41.7992281149       16.6199750000  MEMB      10              0.0000000000
       673        10  CHL1      H4B            34.2434074711       40.7817025904       17.2027950000  MEMB      10              0.0000000000
       674        10  CHL1      C5             34.0103410597       41.5741024596       15.0965250000  MEMB      10              0.0000000000
       675        10  CHL1      C6             33.5712867855       40.4536994121       14.4690250000  MEMB      10              0.0000000000
       676        10  CHL1      H6             33.3968126177       39.6254104045       15.1715250000  MEMB      10              0.0000000000
       677        10  CHL1      C7             33.4128654965       40.3242920337       12.9815150000  MEMB      10              0.0000000000
       678        10  CHL1      H7A            33.8502125017       39.4205279784       12.5058450000  MEMB      10              0.0000000000
       679        10  CHL1      H7B            32.3404297471       40.4086791185       12.7038750000  MEMB      10              0.0000000000
       680        10  CHL1      C8             34.1301081121       41.5182124932       12.3137350000  MEMB      10              0.0000000000
       681        10  CHL1      H8             35.2133999685       41.3270060121       12.4694650000  MEMB      10              0.0000000000
       682        10  CHL1      C14            33.7479557020       41.5494661718       10.8850350000  MEMB      10              0.0000000000
       683        10  CHL1      H14            32.6619520389       41.7429850985       10.7528750000  MEMB      10              0.0000000000
       684        10  CHL1      C15            33.9214974078       40.2853322536       10.0015150000  MEMB      10              0.0000000000
       685        10  CHL1      H15A           34.9377874597       39.8888576114       10.2119850000  MEMB      10              0.0000000000
       686        10  CHL1      H15B           33.1292255220       39.5106595584       10.0821350000  MEMB      10              0.0000000000
       687        10  CHL1      C16            33.9716459256       40.8366194370        8.5958450000  MEMB      10              0.0000000000
       688        10  CHL1      H16A           34.8836795930       40.5278380329        8.0416150000  MEMB      10              0.0000000000
       689        10  CHL1      H16B           33.2337296505       40.3992459333        7.8898050000  MEMB      10              0.0000000000
       690        10  CHL1      C17            33.8901690439       42.3817456197        8.6034150000  MEMB      10              0.0000000000
       691        10  CHL1      H17            32.8165696648       42.6237105394        8.4512750000  MEMB      10              0.0000000000
       692        10  CHL1      C13            34.2922117993       42.6870644395       10.0388350000  MEMB      10              0.0000000000
       693        10  CHL1      C18            35.9025145482       42.6448908197       10.1179950000  MEMB      10              0.0000000000
       694        10  CHL1      H18A           36.3387606886       43.3792980883        9.4076050000  MEMB      10              0.0000000000
       695        10  CHL1      H18B           36.2625157801       42.8955856997       11.1387250000  MEMB      10              0.0000000000
       696        10  CHL1      H18C           36.3217979709       41.6334890967        9.9293850000  MEMB      10              0.0000000000
       697        10  CHL1      C12            33.6871877624       43.9711193539       10.5625750000  MEMB      10              0.0000000000
       698        10  CHL1      H12A           34.1133351096       44.8855876524       10.0973250000  MEMB      10              0.0000000000
       699        10  CHL1      H12B           32.5783341465       43.9839059568       10.4946750000  MEMB      10              0.0000000000
       700        10  CHL1      C11            33.9652743881       44.0832936185       12.0273850000  MEMB      10              0.0000000000
       701        10  CHL1      H11A           35.0233097869       44.3886514674       12.1744650000  MEMB      10              0.0000000000
       702        10  CHL1      H11B           33.3966787856       44.9429601479       12.4421250000  MEMB      10              0.0000000000
       703        10  CHL1      C9             33.7404870976       42.8086077350       12.9234050000  MEMB      10              0.0000000000
       704        10  CHL1      H9             32.6353288060       42.8111048006       13.0371650000  MEMB      10              0.0000000000
       705        10  CHL1      C10            34.1480522541       42.9202964742       14.4047350000  MEMB      10              0.0000000000
       706        10  CHL1      C19            35.6470180265       43.2846454837       14.4063450000  MEMB      10              0.0000000000
       707        10  CHL1      H19A           36.2707651063       42.5412555722       13.8654050000  MEMB      10              0.0000000000
       708        10  CHL1      H19B           35.7894498253       44.2495084705       13.8742850000  MEMB      10              0.0000000000
       709        10  CHL1      H19C           35.8991375938       43.3556899394       15.4860250000  MEMB      10              0.0000000000
       710        10  CHL1      C1             33.3368843287       44.0105105508       15.1603950000  MEMB      10              0.0000000000
       711        10  CHL1      H1A            33.3125582510       44.9940299215       14.6442350000  MEMB      10              0.0000000000
       712        10  CHL1      H1B            32.2752399787       43.6914222259       15.2339650000  MEMB      10              0.0000000000
       713        10  CHL1      C2             33.8184042621       44.1664951485       16.6067850000  MEMB      10              0.0000000000
       714        10  CHL1      H2A            33.1205771413       44.8494493221       17.1368250000  MEMB      10              0.0000000000
       715        10  CHL1      H2B            34.8581113543       44.5465714167       16.5125950000  MEMB      10              0.0000000000
       716        10  CHL1      C20            34.5969879071       43.1157707499        7.4300750000  MEMB      10              0.0000000000
       717        10  CHL1      H20            35.5958675237       42.6294058456        7.4261150000  MEMB      10              0.0000000000
       718        10  CHL1      C21            34.6470423009       44.6336108393        7.5342950000  MEMB      10              0.0000000000
       719        10  CHL1      H21A           33.6395097516       45.1017902424        7.5294950000  MEMB      10              0.0000000000
       720        10  CHL1      H21B           35.2094792658       45.0220660144        6.6584550000  MEMB      10              0.0000000000
       721        10  CHL1      H21C           35.2332697257       45.0324724556        8.3896050000  MEMB      10              0.0000000000
       722        10  CHL1      C22            33.9091668581       42.7342433053        6.0881550000  MEMB      10              0.0000000000
       723        10  CHL1      H22A           33.6865847228       41.6482796846        6.0142850000  MEMB      10              0.0000000000
       724        10  CHL1      H22B           33.0605468579       43.4451224858        5.9942650000  MEMB      10              0.0000000000
       725        10  CHL1      C23            34.8412304483       42.8920984388        4.8703150000  MEMB      10              0.0000000000
       726        10  CHL1      H23A           35.3661637321       43.8710680903        4.8504350000  MEMB      10              0.0000000000
       727        10  CHL1      H23B           35.7349358463       42.2538129179        5.0382850000  MEMB      10              0.0000000000
       728        10  CHL1      C24            34.1429010414       42.6583320804        3.5309250000  MEMB      10              0.0000000000
       729        10  CHL1      H24A           34.7741014732       42.2655715944        2.7053050000  MEMB      10              0.0000000000
       730        10  CHL1      H24B           33.4324396055       41.8128562160        3.6523450000  MEMB      10              0.0000000000
       731        10  CHL1      C25            33.3788390843       43.9182112042        3.0687350000  MEMB      10              0.0000000000
       732        10  CHL1      H25            32.6211557014       44.2904360215        3.7910250000  MEMB      10              0.0000000000
       733        10  CHL1      C26            34.3940066488       45.0837728880        2.7380850000  MEMB      10              0.0000000000
       734        10  CHL1      H26A           35.1655207216       45.2974583705        3.5084250000  MEMB      10              0.0000000000
       735        10  CHL1      H26B           35.0076350991       44.7510522085        1.8737450000  MEMB      10              0.0000000000
       736        10  CHL1      H26C           33.7696736851       45.9963245332        2.6295650000  MEMB      10              0.0000000000
       737        10  CHL1      C27            32.6049132089       43.7542150899        1.7218650000  MEMB      10              0.0000000000
       738        10  CHL1      H27A           32.0366567403       44.6796624401        1.4874450000  MEMB      10              0.0000000000
       739        10  CHL1      H27B           33.2712377296       43.4084254139        0.9028550000  MEMB      10              0.0000000000
       740        10  CHL1      H27C           31.8678917685       42.9297406721        1.8283950000  MEMB      10              0.0000000000
       741        11  CHL1      C3             27.1339495441       30.8042806479       17.3221250000  MEMB      11              0.0000000000
       742        11  CHL1      H3             26.2735406191       30.1704107857       17.0184150000  MEMB      11              0.0000000000
       743        11  CHL1      O3             27.0797512559       31.1927825521       18.6778750000  MEMB      11              0.0000000000
       744        11  CHL1      H3'            27.1968606247       30.3741776133       19.1654950000  MEMB      11              0.0000000000
       745        11  CHL1      C4             28.4144665126       29.9925185409       17.0317150000  MEMB      11              0.0000000000
       746        11  CHL1      H4A            29.2878907414       30.6203545681       17.3096950000  MEMB      11              0.0000000000
       747        11  CHL1      H4B            28.4665629814       29.0476920631       17.6138850000  MEMB      11              0.0000000000
       748        11  CHL1      C5             28.4680719700       29.5319667432       15.5801550000  MEMB      11              0.0000000000
       749        11  CHL1      C6             28.5196474207       28.2432506019       15.2509850000  MEMB      11              0.0000000000
       750        11  CHL1      H6             28.5532163019       27.4216550394       15.9816250000  MEMB      11              0.0000000000
       751        11  CHL1      C7             28.5407554466       27.6912440928       13.7996550000  MEMB      11              0.0000000000
       752        11  CHL1      H7A            29.4508951468       27.0546740653       13.7723950000  MEMB      11              0.0000000000
       753        11  CHL1      H7B            27.5491046841       27.2525403388       13.5578150000  MEMB      11              0.0000000000
       754        11  CHL1      C8             28.8523328993       28.9207264943       12.8352850000  MEMB      11              0.0000000000
       755        11  CHL1      H8             29.9154975630       29.1517463237       13.0603250000  MEMB      11              0.0000000000
       756        11  CHL1      C14            28.6854685627       28.5864568097       11.4037550000  MEMB      11              0.0000000000
       757        11  CHL1      H14            27.5977323481       28.3868457272       11.2974450000  MEMB      11              0.0000000000
       758        11  CHL1      C15            29.3031399804       27.2824545563       10.9122850000  MEMB      11              0.0000000000
       759        11  CHL1      H15A           30.3742831650       27.3327934730       11.2028650000  MEMB      11              0.0000000000
       760        11  CHL1      H15B           28.9160018925       26.3640087433       11.4031050000  MEMB      11              0.0000000000
       761        11  CHL1      C16            29.2313312602       27.2945901526        9.4107650000  MEMB      11              0.0000000000
       762        11  CHL1      H16A           30.2318609632       27.1152665404        8.9623250000  MEMB      11              0.0000000000
       763        11  CHL1      H16B           28.5355037633       26.5298302851        9.0041950000  MEMB      11              0.0000000000
       764        11  CHL1      C17            28.7662579665       28.7820678143        9.0889750000  MEMB      11              0.0000000000
       765        11  CHL1      H17            27.6837566603       28.5826852802        8.9380950000  MEMB      11              0.0000000000
       766        11  CHL1      C13            28.9446158401       29.6683987242       10.3784050000  MEMB      11              0.0000000000
       767        11  CHL1      C18            30.4433442077       30.0782853844       10.4706250000  MEMB      11              0.0000000000
       768        11  CHL1      H18A           30.7932136915       30.5150253872       11.4304050000  MEMB      11              0.0000000000
       769        11  CHL1      H18B           31.0594757986       29.2588565171       10.0425650000  MEMB      11              0.0000000000
       770        11  CHL1      H18C           30.4888726778       30.9902076224        9.8376550000  MEMB      11              0.0000000000
       771        11  CHL1      C12            27.8931762693       30.7438438158       10.6216050000  MEMB      11              0.0000000000
       772        11  CHL1      H12A           28.0968688018       31.6937432490       10.0826050000  MEMB      11              0.0000000000
       773        11  CHL1      H12B           26.8709320042       30.3994688199       10.3556550000  MEMB      11              0.0000000000
       774        11  CHL1      C11            27.9635698288       31.2564012748       12.1237350000  MEMB      11              0.0000000000
       775        11  CHL1      H11A           28.9308653158       31.8023796365       12.1477650000  MEMB      11              0.0000000000
       776        11  CHL1      H11B           27.1476941770       32.0017454113       12.2383350000  MEMB      11              0.0000000000
       777        11  CHL1      C9             27.9337502264       30.1214799160       13.2138750000  MEMB      11              0.0000000000
       778        11  CHL1      H9             26.9076500669       29.7107804624       13.3268750000  MEMB      11              0.0000000000
       779        11  CHL1      C10            28.3846808453       30.6870658142       14.5893650000  MEMB      11              0.0000000000
       780        11  CHL1      C19            29.7881508303       31.3345801012       14.5947750000  MEMB      11              0.0000000000
       781        11  CHL1      H19A           30.5541419384       30.6600796822       14.1558950000  MEMB      11              0.0000000000
       782        11  CHL1      H19B           29.7262534631       32.2070276085       13.9097050000  MEMB      11              0.0000000000
       783        11  CHL1      H19C           30.1082913459       31.6828969122       15.6000150000  MEMB      11              0.0000000000
       784        11  CHL1      C1             27.2106223298       31.6795982113       15.0220850000  MEMB      11              0.0000000000
       785        11  CHL1      H1A            27.3155712802       32.6122286729       14.4275250000  MEMB      11              0.0000000000
       786        11  CHL1      H1B            26.3056030892       31.1473349194       14.6588350000  MEMB      11              0.0000000000
       787        11  CHL1      C2             27.1203139516       32.1005270055       16.5180250000  MEMB      11              0.0000000000
       788        11  CHL1      H2A            26.2729983405       32.7405805405       16.8446950000  MEMB      11              0.0000000000
       789        11  CHL1      H2B            28.0401310068       32.7204430668       16.5809750000  MEMB      11              0.0000000000
       790        11  CHL1      C20            29.2470719448       29.3706446962        7.7927650000  MEMB      11              0.0000000000
       791        11  CHL1      H20            30.3496858051       29.5031968325        7.8243450000  MEMB      11              0.0000000000
       792        11  CHL1      C21            28.7412042895       30.8052667843        7.4649750000  MEMB      11              0.0000000000
       793        11  CHL1      H21A           28.9896626287       31.6104288134        8.1890750000  MEMB      11              0.0000000000
       794        11  CHL1      H21B           27.6357131830       30.8199715350        7.3555250000  MEMB      11              0.0000000000
       795        11  CHL1      H21C           29.0956824553       31.1914926282        6.4854350000  MEMB      11              0.0000000000
       796        11  CHL1      C22            28.9679369682       28.4430328075        6.6245750000  MEMB      11              0.0000000000
       797        11  CHL1      H22A           29.6563591398       27.5999670783        6.8473750000  MEMB      11              0.0000000000
       798        11  CHL1      H22B           27.9763253045       27.9444621672        6.6741050000  MEMB      11              0.0000000000
       799        11  CHL1      C23            29.2215841595       28.9991842323        5.2212150000  MEMB      11              0.0000000000
       800        11  CHL1      H23A           28.4228602653       29.6119328877        4.7512150000  MEMB      11              0.0000000000
       801        11  CHL1      H23B           30.1813459806       29.5579793595        5.1909750000  MEMB      11              0.0000000000
       802        11  CHL1      C24            29.1805122971       27.8117437908        4.1944050000  MEMB      11              0.0000000000
       803        11  CHL1      H24A           29.9491275408       27.0420735383        4.4205950000  MEMB      11              0.0000000000
       804        11  CHL1      H24B           28.1919544457       27.3370043115        4.3723950000  MEMB      11              0.0000000000
       805        11  CHL1      C25            29.2227126342       28.2569191698        2.6914550000  MEMB      11              0.0000000000
       806        11  CHL1      H25            28.3131115598       28.8419313708        2.4370950000  MEMB      11              0.0000000000
       807        11  CHL1      C26            30.4820772735       29.1377743624        2.3754850000  MEMB      11              0.0000000000
       808        11  CHL1      H26A           30.4406442237       30.1083331545        2.9145750000  MEMB      11              0.0000000000
       809        11  CHL1      H26B           31.3874805916       28.5139986768        2.5350550000  MEMB      11              0.0000000000
       810        11  CHL1      H26C           30.5107320531       29.4094238933        1.2985950000  MEMB      11              0.0000000000
       811        11  CHL1      C27            29.4501273039       26.9192418401        1.9617450000  MEMB      11              0.0000000000
       812        11  CHL1      H27A           30.4240393096       26.5115801469        2.3076050000  MEMB      11              0.0000000000
       813        11  CHL1      H27B           28.6871606233       26.1483251789        2.2023350000  MEMB      11              0.0000000000
       814        11  CHL1      H27C           29.4812269363       27.1777778209        0.8816850000  MEMB      11              0.0000000000
       815        12  CHL1      C3            -53.4086230298       46.3960463398       17.3116500000  MEMB      12              0.0000000000
       816        12  CHL1      H3            -54.4783027372       46.6804725537       17.2158000000  MEMB      12              0.0000000000
       817        12  CHL1      O3            -53.0383309702       46.2250310602       18.6883500000  MEMB      12              0.0000000000
       818        12  CHL1      H3'           -53.0499817200       47.1021548652       19.0783800000  MEMB      12              0.0000000000
       819        12  CHL1      C4            -53.2105765379       45.0462663149       16.6023500000  MEMB      12              0.0000000000
       820        12  CHL1      H4A           -52.2060820353       44.6362140412       16.8414300000  MEMB      12              0.0000000000
       821        12  CHL1      H4B           -53.9775826479       44.3770968976       17.0476100000  MEMB      12              0.0000000000
       822        12  CHL1      C5            -53.4125028169       45.2406593795       15.0851500000  MEMB      12              0.0000000000
       823        12  CHL1      C6            -54.2024352699       44.4806461264       14.3632300000  MEMB      12              0.0000000000
       824        12  CHL1      H6            -54.8186366667       43.7268385351       14.8751300000  MEMB      12              0.0000000000
       825        12  CHL1      C7            -54.1422139858       44.4390447004       12.8414000000  MEMB      12              0.0000000000
       826        12  CHL1      H7A           -53.7474480336       43.4567345572       12.5044300000  MEMB      12              0.0000000000
       827        12  CHL1      H7B           -55.0986841243       44.6626874428       12.3222800000  MEMB      12              0.0000000000
       828        12  CHL1      C8            -53.0172993147       45.3133210224       12.2555000000  MEMB      12              0.0000000000
       829        12  CHL1      H8            -52.1189484624       44.6610322900       12.2977400000  MEMB      12              0.0000000000
       830        12  CHL1      C14           -53.2095618207       45.7158185330       10.7728100000  MEMB      12              0.0000000000
       831        12  CHL1      H14           -54.1564727783       46.2730057035       10.6078500000  MEMB      12              0.0000000000
       832        12  CHL1      C15           -53.4771186928       44.5174835105        9.8774200000  MEMB      12              0.0000000000
       833        12  CHL1      H15A          -52.8219961595       43.6464166171       10.0927500000  MEMB      12              0.0000000000
       834        12  CHL1      H15B          -54.4962495711       44.1028033530       10.0314800000  MEMB      12              0.0000000000
       835        12  CHL1      C16           -53.2484070902       45.0058406013        8.4554300000  MEMB      12              0.0000000000
       836        12  CHL1      H16A          -52.4897672334       44.4288763579        7.8845400000  MEMB      12              0.0000000000
       837        12  CHL1      H16B          -54.2276598494       45.0001995696        7.9306900000  MEMB      12              0.0000000000
       838        12  CHL1      C17           -52.6818383876       46.5157459739        8.6438900000  MEMB      12              0.0000000000
       839        12  CHL1      H17           -53.5605539245       47.1848236189        8.7643800000  MEMB      12              0.0000000000
       840        12  CHL1      C13           -52.0559950296       46.4799468990       10.0977200000  MEMB      12              0.0000000000
       841        12  CHL1      C18           -50.7355673649       45.6262690584       10.1212300000  MEMB      12              0.0000000000
       842        12  CHL1      H18A          -50.9501501683       44.7378023257        9.4896400000  MEMB      12              0.0000000000
       843        12  CHL1      H18B          -49.8940475989       46.2182580431        9.7020400000  MEMB      12              0.0000000000
       844        12  CHL1      H18C          -50.5163320556       45.3510013775       11.1750300000  MEMB      12              0.0000000000
       845        12  CHL1      C12           -51.9441868126       47.7995728599       10.8685100000  MEMB      12              0.0000000000
       846        12  CHL1      H12A          -51.1600303127       48.5024675514       10.5144600000  MEMB      12              0.0000000000
       847        12  CHL1      H12B          -52.9267406646       48.3179275377       10.8537200000  MEMB      12              0.0000000000
       848        12  CHL1      C11           -51.6604125662       47.5930302260       12.3745700000  MEMB      12              0.0000000000
       849        12  CHL1      H11A          -50.6650422177       47.1246344625       12.5299900000  MEMB      12              0.0000000000
       850        12  CHL1      H11B          -51.6079166253       48.5811785467       12.8796800000  MEMB      12              0.0000000000
       851        12  CHL1      C9            -52.7125887410       46.6111008263       13.0858200000  MEMB      12              0.0000000000
       852        12  CHL1      H9            -53.6899272406       47.1394131896       13.0818100000  MEMB      12              0.0000000000
       853        12  CHL1      C10           -52.3762444145       46.2482453831       14.5112100000  MEMB      12              0.0000000000
       854        12  CHL1      C19           -50.9580152582       45.5974916826       14.6069200000  MEMB      12              0.0000000000
       855        12  CHL1      H19A          -50.8399188517       44.6826244776       13.9877400000  MEMB      12              0.0000000000
       856        12  CHL1      H19B          -50.1166258488       46.2237005126       14.2405000000  MEMB      12              0.0000000000
       857        12  CHL1      H19C          -50.7657370994       45.3406543527       15.6705800000  MEMB      12              0.0000000000
       858        12  CHL1      C1            -52.5219195651       47.5971524744       15.2507000000  MEMB      12              0.0000000000
       859        12  CHL1      H1A           -51.6849828509       48.2931448275       15.0283400000  MEMB      12              0.0000000000
       860        12  CHL1      H1B           -53.5158807260       48.0525102975       15.0531300000  MEMB      12              0.0000000000
       861        12  CHL1      C2            -52.3658450667       47.4854820259       16.7920600000  MEMB      12              0.0000000000
       862        12  CHL1      H2A           -52.6925479009       48.4521323109       17.2315700000  MEMB      12              0.0000000000
       863        12  CHL1      H2B           -51.3423430543       47.1654778203       17.0825300000  MEMB      12              0.0000000000
       864        12  CHL1      C20           -51.7942004435       47.0546427667        7.4694100000  MEMB      12              0.0000000000
       865        12  CHL1      H20           -50.9371305309       46.4165533025        7.1651300000  MEMB      12              0.0000000000
       866        12  CHL1      C21           -51.2367715525       48.5168446379        7.7757300000  MEMB      12              0.0000000000
       867        12  CHL1      H21A          -52.1286196271       49.1332729006        8.0184900000  MEMB      12              0.0000000000
       868        12  CHL1      H21B          -50.6420731249       48.8989001838        6.9185800000  MEMB      12              0.0000000000
       869        12  CHL1      H21C          -50.5464862285       48.4593703695        8.6443700000  MEMB      12              0.0000000000
       870        12  CHL1      C22           -52.7058113579       47.0274112504        6.2567900000  MEMB      12              0.0000000000
       871        12  CHL1      H22A          -52.8870463429       45.9705634086        5.9660400000  MEMB      12              0.0000000000
       872        12  CHL1      H22B          -53.7420397268       47.3653167478        6.4721200000  MEMB      12              0.0000000000
       873        12  CHL1      C23           -52.1747731205       47.7221434553        4.9724600000  MEMB      12              0.0000000000
       874        12  CHL1      H23A          -52.1322030297       48.8093972768        5.1969400000  MEMB      12              0.0000000000
       875        12  CHL1      H23B          -51.1561511023       47.3409720023        4.7456400000  MEMB      12              0.0000000000
       876        12  CHL1      C24           -53.1961736197       47.4499101121        3.8387900000  MEMB      12              0.0000000000
       877        12  CHL1      H24A          -53.6536863489       46.4524857764        4.0124300000  MEMB      12              0.0000000000
       878        12  CHL1      H24B          -54.0739417983       48.1275791605        3.9068500000  MEMB      12              0.0000000000
       879        12  CHL1      C25           -52.6591525621       47.5651104936        2.4130700000  MEMB      12              0.0000000000
       880        12  CHL1      H25           -51.8228540032       46.8599703906        2.2188600000  MEMB      12              0.0000000000
       881        12  CHL1      C26           -53.8251268160       47.5195746474        1.3290400000  MEMB      12              0.0000000000
       882        12  CHL1      H26A          -53.4214273793       47.7716889869        0.3251600000  MEMB      12              0.0000000000
       883        12  CHL1      H26B          -54.2163326383       46.4835278443        1.4179100000  MEMB      12              0.0000000000
       884        12  CHL1      H26C          -54.5570028351       48.3249985227        1.5526300000  MEMB      12              0.0000000000
       885        12  CHL1      C27           -52.0743159908       48.9473626102        2.3263700000  MEMB      12              0.0000000000
       886        12  CHL1      H27A          -51.3096480938       49.3231082690        3.0394000000  MEMB      12              0.0000000000
       887        12  CHL1      H27B          -51.6026629143       49.1766669226        1.3469400000  MEMB      12              0.0000000000
       888        12  CHL1      H27C          -52.8815269113       49.6745155411        2.5586500000  MEMB      12              0.0000000000
       889        13  CHL1      C3            -53.1650251965       54.6636990037       17.2722350000  MEMB      13              0.0000000000
       890        13  CHL1      H3            -52.5909709427       55.5479101835       16.9215850000  MEMB      13              0.0000000000
       891        13  CHL1      O3            -53.0910940035       54.6575505963       18.7277650000  MEMB      13              0.0000000000
       892        13  CHL1      H3'           -53.2699794515       55.5747059419       18.9478250000  MEMB      13              0.0000000000
       893        13  CHL1      C4            -54.6894110879       54.8080500880       16.9025950000  MEMB      13              0.0000000000
       894        13  CHL1      H4A           -55.1937806081       53.9060103046       17.3103350000  MEMB      13              0.0000000000
       895        13  CHL1      H4B           -55.1546392007       55.6604573499       17.4423050000  MEMB      13              0.0000000000
       896        13  CHL1      C5            -54.8898612459       54.8340630366       15.4423050000  MEMB      13              0.0000000000
       897        13  CHL1      C6            -55.6843242864       55.8139945973       14.9530850000  MEMB      13              0.0000000000
       898        13  CHL1      H6            -56.0121927865       56.6083467464       15.6397550000  MEMB      13              0.0000000000
       899        13  CHL1      C7            -55.9512727379       55.9669751305       13.5022450000  MEMB      13              0.0000000000
       900        13  CHL1      H7A           -57.0038621201       56.1643490924       13.2065950000  MEMB      13              0.0000000000
       901        13  CHL1      H7B           -55.3149780323       56.7370229158       13.0159550000  MEMB      13              0.0000000000
       902        13  CHL1      C8            -55.7354260618       54.5205075672       12.7428950000  MEMB      13              0.0000000000
       903        13  CHL1      H8            -56.5659050783       53.8680855525       13.0878250000  MEMB      13              0.0000000000
       904        13  CHL1      C14           -55.7225867017       54.8185311552       11.2208150000  MEMB      13              0.0000000000
       905        13  CHL1      H14           -54.8647526052       55.5225283965       11.1675850000  MEMB      13              0.0000000000
       906        13  CHL1      C15           -56.9335280640       55.5345569481       10.6489650000  MEMB      13              0.0000000000
       907        13  CHL1      H15A          -57.7973065348       55.1596228474       11.2385650000  MEMB      13              0.0000000000
       908        13  CHL1      H15B          -56.9417021211       56.6394979939       10.7645350000  MEMB      13              0.0000000000
       909        13  CHL1      C16           -57.0349451094       55.0654951404        9.1890350000  MEMB      13              0.0000000000
       910        13  CHL1      H16A          -57.8739038674       54.3671223631        8.9822650000  MEMB      13              0.0000000000
       911        13  CHL1      H16B          -57.0456195243       55.9224698008        8.4820550000  MEMB      13              0.0000000000
       912        13  CHL1      C17           -55.7009239095       54.2566876163        8.9062950000  MEMB      13              0.0000000000
       913        13  CHL1      H17           -54.9377680197       55.0072990964        8.6087850000  MEMB      13              0.0000000000
       914        13  CHL1      C13           -55.4733127531       53.6332762202       10.2695850000  MEMB      13              0.0000000000
       915        13  CHL1      C18           -56.4733820654       52.5190750439       10.5622350000  MEMB      13              0.0000000000
       916        13  CHL1      H18A          -56.5032851651       52.2973347187       11.6504650000  MEMB      13              0.0000000000
       917        13  CHL1      H18B          -57.5135016781       52.8482522825       10.3521650000  MEMB      13              0.0000000000
       918        13  CHL1      H18C          -56.2553726932       51.5921352434        9.9898950000  MEMB      13              0.0000000000
       919        13  CHL1      C12           -54.1081770673       53.0719991016       10.6372650000  MEMB      13              0.0000000000
       920        13  CHL1      H12A          -53.8662508820       52.1675859198       10.0390650000  MEMB      13              0.0000000000
       921        13  CHL1      H12B          -53.2672277161       53.6973866089       10.2684650000  MEMB      13              0.0000000000
       922        13  CHL1      C11           -53.9237167309       52.7726331871       12.1399850000  MEMB      13              0.0000000000
       923        13  CHL1      H11A          -54.4865705566       51.8300773056       12.3105650000  MEMB      13              0.0000000000
       924        13  CHL1      H11B          -52.8756804589       52.4509111082       12.3200950000  MEMB      13              0.0000000000
       925        13  CHL1      C9            -54.3881574406       53.9277444247       13.0890350000  MEMB      13              0.0000000000
       926        13  CHL1      H9            -53.6163570501       54.7248398225       13.0317150000  MEMB      13              0.0000000000
       927        13  CHL1      C10           -54.3431351630       53.6318216412       14.6265350000  MEMB      13              0.0000000000
       928        13  CHL1      C19           -55.1310917802       52.3087507600       14.9512150000  MEMB      13              0.0000000000
       929        13  CHL1      H19A          -54.4781618539       51.5157676183       14.5279250000  MEMB      13              0.0000000000
       930        13  CHL1      H19B          -55.1302734450       52.0261027486       16.0256650000  MEMB      13              0.0000000000
       931        13  CHL1      H19C          -56.1760934330       52.2179276293       14.5850850000  MEMB      13              0.0000000000
       932        13  CHL1      C1            -52.8038615890       53.4815694883       15.0268350000  MEMB      13              0.0000000000
       933        13  CHL1      H1A           -52.3169770851       52.6345963059       14.4977750000  MEMB      13              0.0000000000
       934        13  CHL1      H1B           -52.2568964651       54.4035332607       14.7350650000  MEMB      13              0.0000000000
       935        13  CHL1      C2            -52.5799544003       53.3679040628       16.5628150000  MEMB      13              0.0000000000
       936        13  CHL1      H2A           -51.4784216602       53.3300051294       16.7024650000  MEMB      13              0.0000000000
       937        13  CHL1      H2B           -53.0331521511       52.4741957630       17.0426350000  MEMB      13              0.0000000000
       938        13  CHL1      C20           -55.7982314232       53.2387332172        7.7634150000  MEMB      13              0.0000000000
       939        13  CHL1      H20           -56.6020852184       52.5671412574        8.1336950000  MEMB      13              0.0000000000
       940        13  CHL1      C21           -54.6401602277       52.3027538941        7.5158250000  MEMB      13              0.0000000000
       941        13  CHL1      H21A          -54.6483280414       51.4190983170        8.1891850000  MEMB      13              0.0000000000
       942        13  CHL1      H21B          -53.7446753100       52.9252093389        7.7279150000  MEMB      13              0.0000000000
       943        13  CHL1      H21C          -54.5953832903       52.0336447378        6.4388350000  MEMB      13              0.0000000000
       944        13  CHL1      C22           -56.2919001854       53.9704239419        6.4993350000  MEMB      13              0.0000000000
       945        13  CHL1      H22A          -57.1237214346       54.6530047194        6.7758750000  MEMB      13              0.0000000000
       946        13  CHL1      H22B          -55.4874476555       54.5597797057        6.0095950000  MEMB      13              0.0000000000
       947        13  CHL1      C23           -56.9272942633       53.0051888891        5.3828850000  MEMB      13              0.0000000000
       948        13  CHL1      H23A          -56.1087744577       52.4078340378        4.9273450000  MEMB      13              0.0000000000
       949        13  CHL1      H23B          -57.7121192048       52.4025534463        5.8880650000  MEMB      13              0.0000000000
       950        13  CHL1      C24           -57.6741374099       53.6125412081        4.2230150000  MEMB      13              0.0000000000
       951        13  CHL1      H24A          -58.4598356267       54.3396780624        4.5201350000  MEMB      13              0.0000000000
       952        13  CHL1      H24B          -57.0116915342       54.0984899573        3.4751150000  MEMB      13              0.0000000000
       953        13  CHL1      C25           -58.4160482488       52.5484276701        3.2710050000  MEMB      13              0.0000000000
       954        13  CHL1      H25           -59.0096184563       51.9148867662        3.9642750000  MEMB      13              0.0000000000
       955        13  CHL1      C26           -59.3705287035       53.1235773265        2.2326350000  MEMB      13              0.0000000000
       956        13  CHL1      H26A          -60.1454171062       53.7346267271        2.7430150000  MEMB      13              0.0000000000
       957        13  CHL1      H26B          -58.7601499108       53.8875210508        1.7052350000  MEMB      13              0.0000000000
       958        13  CHL1      H26C          -59.7723325842       52.3082202980        1.5938250000  MEMB      13              0.0000000000
       959        13  CHL1      C27           -57.4967691047       51.5782487703        2.5224950000  MEMB      13              0.0000000000
       960        13  CHL1      H27A          -58.0281951893       50.6432964662        2.2436250000  MEMB      13              0.0000000000
       961        13  CHL1      H27B          -57.1484320202       52.0957963129        1.6031850000  MEMB      13              0.0000000000
       962        13  CHL1      H27C          -56.5810304383       51.3509241127        3.1090650000  MEMB      13              0.0000000000
       963        14  CHL1      C3             48.7287190862       34.2469359778       17.3266400000  MEMB      14              0.0000000000
       964        14  CHL1      H3             47.6406215188       34.2885764308       17.1061300000  MEMB      14              0.0000000000
       965        14  CHL1      O3             49.0495675138       33.9363204222       18.6733600000  MEMB      14              0.0000000000
       966        14  CHL1      H3'            48.8561139032       34.7132922605       19.2029800000  MEMB      14              0.0000000000
       967        14  CHL1      C4             49.3229171346       33.0797939350       16.4762800000  MEMB      14              0.0000000000
       968        14  CHL1      H4A            50.3468638547       32.9206253594       16.8769400000  MEMB      14              0.0000000000
       969        14  CHL1      H4B            48.8373112448       32.1076137756       16.7072900000  MEMB      14              0.0000000000
       970        14  CHL1      C5             49.3446527922       33.3034839725       15.0708200000  MEMB      14              0.0000000000
       971        14  CHL1      C6             48.7823490609       32.4597502019       14.2059000000  MEMB      14              0.0000000000
       972        14  CHL1      H6             48.4823437158       31.4969197486       14.6451800000  MEMB      14              0.0000000000
       973        14  CHL1      C7             48.5542331669       32.6551738602       12.7481800000  MEMB      14              0.0000000000
       974        14  CHL1      H7A            48.8197122983       31.7649268170       12.1388400000  MEMB      14              0.0000000000
       975        14  CHL1      H7B            47.4794619872       32.8238936030       12.5229900000  MEMB      14              0.0000000000
       976        14  CHL1      C8             49.3645371731       33.8119285424       12.2415900000  MEMB      14              0.0000000000
       977        14  CHL1      H8             50.4389233053       33.5291497524       12.2349500000  MEMB      14              0.0000000000
       978        14  CHL1      C14            48.9725433887       34.0564709784       10.7795800000  MEMB      14              0.0000000000
       979        14  CHL1      H14            47.9006267185       34.3450601863       10.8247600000  MEMB      14              0.0000000000
       980        14  CHL1      C15            49.1549226614       32.9117691170        9.7759300000  MEMB      14              0.0000000000
       981        14  CHL1      H15A           50.1157749964       32.3904539946        9.9742400000  MEMB      14              0.0000000000
       982        14  CHL1      H15B           48.3455584152       32.1544023106        9.8510600000  MEMB      14              0.0000000000
       983        14  CHL1      C16            49.0156007174       33.5721777584        8.4448000000  MEMB      14              0.0000000000
       984        14  CHL1      H16A           49.9358070197       33.2823193465        7.8938600000  MEMB      14              0.0000000000
       985        14  CHL1      H16B           48.0585958569       33.4387651146        7.8964800000  MEMB      14              0.0000000000
       986        14  CHL1      C17            49.2026887254       35.0908121284        8.6895800000  MEMB      14              0.0000000000
       987        14  CHL1      H17            48.1923828539       35.5498717006        8.7432000000  MEMB      14              0.0000000000
       988        14  CHL1      C13            49.7167021099       35.2131379680       10.1902700000  MEMB      14              0.0000000000
       989        14  CHL1      C18            51.3115813579       35.0050861271       10.1721300000  MEMB      14              0.0000000000
       990        14  CHL1      H18A           51.5898077959       34.2180745156        9.4389800000  MEMB      14              0.0000000000
       991        14  CHL1      H18B           51.7876326223       35.9170629043        9.7526200000  MEMB      14              0.0000000000
       992        14  CHL1      H18C           51.7924312785       34.7822371983       11.1485700000  MEMB      14              0.0000000000
       993        14  CHL1      C12            49.3368179551       36.4556987459       10.9779100000  MEMB      14              0.0000000000
       994        14  CHL1      H12A           49.8059353260       37.3848669517       10.5894300000  MEMB      14              0.0000000000
       995        14  CHL1      H12B           48.2290418109       36.4530238154       10.8933500000  MEMB      14              0.0000000000
       996        14  CHL1      C11            49.7037412698       36.3175161921       12.4450400000  MEMB      14              0.0000000000
       997        14  CHL1      H11A           50.7939495054       36.3519557363       12.6561500000  MEMB      14              0.0000000000
       998        14  CHL1      H11B           49.2310055061       37.1481934738       13.0114500000  MEMB      14              0.0000000000
       999        14  CHL1      C9             49.1365232509       34.9854776631       13.1330200000  MEMB      14              0.0000000000
      1000        14  CHL1      H9             48.0290931480       35.0311511757       13.2093700000  MEMB      14              0.0000000000
      1001        14  CHL1      C10            49.6972348792       34.7286713398       14.5687000000  MEMB      14              0.0000000000
      1002        14  CHL1      C19            51.2796930768       34.7203027083       14.6574200000  MEMB      14              0.0000000000
      1003        14  CHL1      H19A           51.5556207495       34.6185914521       15.7287900000  MEMB      14              0.0000000000
      1004        14  CHL1      H19B           51.8316069115       33.9642308612       14.0590300000  MEMB      14              0.0000000000
      1005        14  CHL1      H19C           51.6527620062       35.7377285199       14.4125400000  MEMB      14              0.0000000000
      1006        14  CHL1      C1             49.1005195020       35.8399069826       15.4778300000  MEMB      14              0.0000000000
      1007        14  CHL1      H1A            49.5255112076       36.8042972080       15.1261700000  MEMB      14              0.0000000000
      1008        14  CHL1      H1B            48.0043723595       35.7548483443       15.3180200000  MEMB      14              0.0000000000
      1009        14  CHL1      C2             49.3312496128       35.6261315105       16.9998300000  MEMB      14              0.0000000000
      1010        14  CHL1      H2A            48.6723866927       36.2612456408       17.6297800000  MEMB      14              0.0000000000
      1011        14  CHL1      H2B            50.3779773180       35.7477492095       17.3518100000  MEMB      14              0.0000000000
      1012        14  CHL1      C20            49.9631004178       35.6611961862        7.4779500000  MEMB      14              0.0000000000
      1013        14  CHL1      H20            50.8749464388       35.0287449685        7.4243900000  MEMB      14              0.0000000000
      1014        14  CHL1      C21            50.3262214106       37.1659008916        7.6737200000  MEMB      14              0.0000000000
      1015        14  CHL1      H21A           50.9490121109       37.6077690689        6.8667500000  MEMB      14              0.0000000000
      1016        14  CHL1      H21B           50.8452332028       37.3572463134        8.6372200000  MEMB      14              0.0000000000
      1017        14  CHL1      H21C           49.3332303803       37.6563804507        7.7614700000  MEMB      14              0.0000000000
      1018        14  CHL1      C22            49.3783062791       35.4027531833        6.0813800000  MEMB      14              0.0000000000
      1019        14  CHL1      H22A           48.9151951676       34.3995975586        5.9650900000  MEMB      14              0.0000000000
      1020        14  CHL1      H22B           48.5665844465       36.1556187186        5.9885300000  MEMB      14              0.0000000000
      1021        14  CHL1      C23            50.3329949847       35.6663699635        4.9179900000  MEMB      14              0.0000000000
      1022        14  CHL1      H23A           50.9376946664       36.5964029317        4.9789000000  MEMB      14              0.0000000000
      1023        14  CHL1      H23B           51.2239885704       35.0175875106        5.0577500000  MEMB      14              0.0000000000
      1024        14  CHL1      C24            49.7976735411       35.6768222207        3.4962800000  MEMB      14              0.0000000000
      1025        14  CHL1      H24A           48.9725489118       34.9348070926        3.4425100000  MEMB      14              0.0000000000
      1026        14  CHL1      H24B           49.3216606893       36.6695650623        3.3473300000  MEMB      14              0.0000000000
      1027        14  CHL1      C25            50.7220675259       35.3616177970        2.3578600000  MEMB      14              0.0000000000
      1028        14  CHL1      H25            51.1338966528       34.3578040949        2.5967900000  MEMB      14              0.0000000000
      1029        14  CHL1      C26            50.0199884767       35.1446448974        0.9627100000  MEMB      14              0.0000000000
      1030        14  CHL1      H26A           49.1085532591       34.5177143505        1.0655000000  MEMB      14              0.0000000000
      1031        14  CHL1      H26B           49.8455271614       36.1087024925        0.4388000000  MEMB      14              0.0000000000
      1032        14  CHL1      H26C           50.6524096292       34.4769150311        0.3394100000  MEMB      14              0.0000000000
      1033        14  CHL1      C27            51.7305011799       36.4151435470        1.9227200000  MEMB      14              0.0000000000
      1034        14  CHL1      H27A           52.3573123269       36.5935913056        2.8224900000  MEMB      14              0.0000000000
      1035        14  CHL1      H27B           52.2447342458       36.0815798278        0.9960900000  MEMB      14              0.0000000000
      1036        14  CHL1      H27C           51.2736027163       37.3701972832        1.5859200000  MEMB      14              0.0000000000
      1037        15  CHL1      C3             -9.9656590200       17.2296631013       17.3101700000  MEMB      15              0.0000000000
      1038        15  CHL1      H3            -10.0409358750       16.1270706675       17.1963500000  MEMB      15              0.0000000000
      1039        15  CHL1      O3             -9.7787270400       17.5909972987       18.6898300000  MEMB      15              0.0000000000
      1040        15  CHL1      H3'           -10.5150077322       17.1826533427       19.1510600000  MEMB      15              0.0000000000
      1041        15  CHL1      C4             -8.6142339931       17.6922150008       16.7305800000  MEMB      15              0.0000000000
      1042        15  CHL1      H4A            -8.4239147972       18.7522890303       17.0032300000  MEMB      15              0.0000000000
      1043        15  CHL1      H4B            -7.7965571635       17.1236613980       17.2229900000  MEMB      15              0.0000000000
      1044        15  CHL1      C5             -8.4995861909       17.6545495172       15.2290100000  MEMB      15              0.0000000000
      1045        15  CHL1      C6             -7.4165196718       17.0795199597       14.6067000000  MEMB      15              0.0000000000
      1046        15  CHL1      H6             -6.5802661266       16.6745682339       15.1955200000  MEMB      15              0.0000000000
      1047        15  CHL1      C7             -7.2616422871       16.9176297234       13.0796500000  MEMB      15              0.0000000000
      1048        15  CHL1      H7A            -6.2595799378       17.2582168233       12.7417300000  MEMB      15              0.0000000000
      1049        15  CHL1      H7B            -7.4789113792       15.8699545000       12.7805000000  MEMB      15              0.0000000000
      1050        15  CHL1      C8             -8.3208614835       17.7802227878       12.2457900000  MEMB      15              0.0000000000
      1051        15  CHL1      H8             -7.9839651866       18.8375775765       12.1926400000  MEMB      15              0.0000000000
      1052        15  CHL1      C14            -8.4727961623       17.2146723105       10.8762900000  MEMB      15              0.0000000000
      1053        15  CHL1      H14            -9.0146836787       16.2545683857       11.0136700000  MEMB      15              0.0000000000
      1054        15  CHL1      C15            -7.1642654288       17.0617165496       10.0184500000  MEMB      15              0.0000000000
      1055        15  CHL1      H15A           -6.6576489998       18.0277189822       10.2294100000  MEMB      15              0.0000000000
      1056        15  CHL1      H15B           -6.6698170001       16.1092350744       10.3059100000  MEMB      15              0.0000000000
      1057        15  CHL1      C16            -7.6095957159       17.0214628656        8.5727600000  MEMB      15              0.0000000000
      1058        15  CHL1      H16A           -7.1000192375       17.8152495339        7.9857700000  MEMB      15              0.0000000000
      1059        15  CHL1      H16B           -7.4789098442       16.0903692510        7.9809100000  MEMB      15              0.0000000000
      1060        15  CHL1      C17            -9.1738956796       17.2789819754        8.5420400000  MEMB      15              0.0000000000
      1061        15  CHL1      H17            -9.6464709317       16.2741140738        8.5772000000  MEMB      15              0.0000000000
      1062        15  CHL1      C13            -9.4121230711       17.9601486965        9.9332000000  MEMB      15              0.0000000000
      1063        15  CHL1      C18            -9.1556596572       19.4966070526        9.8464800000  MEMB      15              0.0000000000
      1064        15  CHL1      H18A           -8.1042601318       19.6949665295        9.5472400000  MEMB      15              0.0000000000
      1065        15  CHL1      H18B           -9.8605685122       19.8912633009        9.0838100000  MEMB      15              0.0000000000
      1066        15  CHL1      H18C           -9.4218169678       20.0495313041       10.7726300000  MEMB      15              0.0000000000
      1067        15  CHL1      C12           -10.8141302004       17.8717918477       10.5546200000  MEMB      15              0.0000000000
      1068        15  CHL1      H12A          -11.6276772746       18.5036883460       10.1384900000  MEMB      15              0.0000000000
      1069        15  CHL1      H12B          -11.0625000641       16.7898390688       10.5098000000  MEMB      15              0.0000000000
      1070        15  CHL1      C11           -10.8566100767       18.2501333584       12.1080000000  MEMB      15              0.0000000000
      1071        15  CHL1      H11A          -10.9029989755       19.3549046761       12.2159200000  MEMB      15              0.0000000000
      1072        15  CHL1      H11B          -11.8105258293       17.8462365892       12.5095400000  MEMB      15              0.0000000000
      1073        15  CHL1      C9             -9.6651246233       17.6744481268       12.9683800000  MEMB      15              0.0000000000
      1074        15  CHL1      H9             -9.7893797262       16.5714594132       13.0164800000  MEMB      15              0.0000000000
      1075        15  CHL1      C10            -9.7524736053       18.1373724954       14.4944400000  MEMB      15              0.0000000000
      1076        15  CHL1      C19            -9.8527932337       19.7302701997       14.6070800000  MEMB      15              0.0000000000
      1077        15  CHL1      H19A           -8.8639451957       20.1133656890       14.2758000000  MEMB      15              0.0000000000
      1078        15  CHL1      H19B          -10.7139921321       20.0741549667       13.9952000000  MEMB      15              0.0000000000
      1079        15  CHL1      H19C          -10.0386136919       20.0381838320       15.6582600000  MEMB      15              0.0000000000
      1080        15  CHL1      C1            -11.0768778421       17.5078581409       15.1407900000  MEMB      15              0.0000000000
      1081        15  CHL1      H1A           -11.9225999101       17.7394539739       14.4585700000  MEMB      15              0.0000000000
      1082        15  CHL1      H1B           -11.0788927664       16.4029335172       15.0247800000  MEMB      15              0.0000000000
      1083        15  CHL1      C2            -11.1013103757       17.8826982911       16.6323600000  MEMB      15              0.0000000000
      1084        15  CHL1      H2A           -12.0415831599       17.3373704199       16.8622000000  MEMB      15              0.0000000000
      1085        15  CHL1      H2B           -11.3071875133       18.9286076365       16.9454300000  MEMB      15              0.0000000000
      1086        15  CHL1      C20            -9.5515519325       18.0246024631        7.2113100000  MEMB      15              0.0000000000
      1087        15  CHL1      H20            -9.1727540223       19.0681190509        7.2551000000  MEMB      15              0.0000000000
      1088        15  CHL1      C21           -11.0566056265       18.2020988858        7.1126000000  MEMB      15              0.0000000000
      1089        15  CHL1      H21A          -11.4365600527       18.6257695996        8.0667800000  MEMB      15              0.0000000000
      1090        15  CHL1      H21B          -11.4846143367       17.2361478424        6.7690000000  MEMB      15              0.0000000000
      1091        15  CHL1      H21C          -11.2780040950       19.0029959917        6.3751200000  MEMB      15              0.0000000000
      1092        15  CHL1      C22            -9.0071120721       17.2621278135        5.9457800000  MEMB      15              0.0000000000
      1093        15  CHL1      H22A           -7.9032379613       17.2084935069        6.0594100000  MEMB      15              0.0000000000
      1094        15  CHL1      H22B           -9.3392950284       16.2062099729        6.0407000000  MEMB      15              0.0000000000
      1095        15  CHL1      C23            -9.2323057236       17.9383289712        4.5910000000  MEMB      15              0.0000000000
      1096        15  CHL1      H23A          -10.3280907587       17.9322253045        4.4078800000  MEMB      15              0.0000000000
      1097        15  CHL1      H23B           -8.8941562204       18.9918719396        4.6911400000  MEMB      15              0.0000000000
      1098        15  CHL1      C24            -8.4138963294       17.2509716188        3.4114900000  MEMB      15              0.0000000000
      1099        15  CHL1      H24A           -7.4184927990       16.9676293664        3.8155000000  MEMB      15              0.0000000000
      1100        15  CHL1      H24B           -8.9257742327       16.3438258135        3.0249800000  MEMB      15              0.0000000000
      1101        15  CHL1      C25            -8.2960949095       18.0867622447        2.1914700000  MEMB      15              0.0000000000
      1102        15  CHL1      H25            -7.7004215878       18.9899172648        2.4441000000  MEMB      15              0.0000000000
      1103        15  CHL1      C26            -7.5628805433       17.3934212304        0.9932200000  MEMB      15              0.0000000000
      1104        15  CHL1      H26A           -7.6441824364       18.0665694778        0.1131100000  MEMB      15              0.0000000000
      1105        15  CHL1      H26B           -6.4784659491       17.1693448158        1.0835700000  MEMB      15              0.0000000000
      1106        15  CHL1      H26C           -8.0521014811       16.4161949577        0.7932200000  MEMB      15              0.0000000000
      1107        15  CHL1      C27            -9.6742937051       18.5443098685        1.6581700000  MEMB      15              0.0000000000
      1108        15  CHL1      H27A          -10.1742253060       17.5969574673        1.3633500000  MEMB      15              0.0000000000
      1109        15  CHL1      H27B          -10.2885573979       18.9599098601        2.4853800000  MEMB      15              0.0000000000
      1110        15  CHL1      H27C           -9.5482093236       19.3309399031        0.8838100000  MEMB      15              0.0000000000
      1111        16  CHL1      C3             41.8924154307      -11.5382176447       17.3915150000  MEMB      16              0.0000000000
      1112        16  CHL1      H3             41.1523350266      -10.7409355217       17.6172050000  MEMB      16              0.0000000000
      1113        16  CHL1      O3             42.3704835693      -12.0573901553       18.6084850000  MEMB      16              0.0000000000
      1114        16  CHL1      H3'            41.5488894859      -11.9034702760       19.0805850000  MEMB      16              0.0000000000
      1115        16  CHL1      C4             41.3155316016      -12.6306548690       16.4697650000  MEMB      16              0.0000000000
      1116        16  CHL1      H4A            41.6854119485      -13.6733949927       16.5708250000  MEMB      16              0.0000000000
      1117        16  CHL1      H4B            40.3266479223      -12.8370811116       16.9321750000  MEMB      16              0.0000000000
      1118        16  CHL1      C5             41.0299922046      -12.3080422783       15.0507650000  MEMB      16              0.0000000000
      1119        16  CHL1      C6             39.8730106785      -12.5752365947       14.4686950000  MEMB      16              0.0000000000
      1120        16  CHL1      H6             39.0668305572      -13.0638114894       15.0355850000  MEMB      16              0.0000000000
      1121        16  CHL1      C7             39.5838065691      -12.2878331660       13.0073650000  MEMB      16              0.0000000000
      1122        16  CHL1      H7A            39.1461302440      -13.1728213246       12.4979050000  MEMB      16              0.0000000000
      1123        16  CHL1      H7B            38.8645635302      -11.4419969009       13.0469350000  MEMB      16              0.0000000000
      1124        16  CHL1      C8             40.8751781622      -11.9478087870       12.2398650000  MEMB      16              0.0000000000
      1125        16  CHL1      H8             41.1851641171      -12.9726710947       11.9433950000  MEMB      16              0.0000000000
      1126        16  CHL1      C14            40.4766798945      -11.2714510947       10.9540150000  MEMB      16              0.0000000000
      1127        16  CHL1      H14            39.8922040893      -10.3422440960       11.1251250000  MEMB      16              0.0000000000
      1128        16  CHL1      C15            39.5473953619      -12.0487796657       10.0491450000  MEMB      16              0.0000000000
      1129        16  CHL1      H15A           39.9292782213      -13.0791206688        9.8851750000  MEMB      16              0.0000000000
      1130        16  CHL1      H15B           38.5016093371      -12.1804901644       10.4002950000  MEMB      16              0.0000000000
      1131        16  CHL1      C16            39.7063700733      -11.2574297019        8.6422050000  MEMB      16              0.0000000000
      1132        16  CHL1      H16A           39.8194409668      -11.9238789047        7.7605150000  MEMB      16              0.0000000000
      1133        16  CHL1      H16B           38.8482437266      -10.5642443475        8.5102350000  MEMB      16              0.0000000000
      1134        16  CHL1      C17            40.9730597717      -10.3651099720        8.8034550000  MEMB      16              0.0000000000
      1135        16  CHL1      H17            40.7448748209       -9.3875989404        9.2796050000  MEMB      16              0.0000000000
      1136        16  CHL1      C13            41.6849508771      -10.8681173125       10.0448050000  MEMB      16              0.0000000000
      1137        16  CHL1      C18            42.4729021889      -12.1670059191        9.6246650000  MEMB      16              0.0000000000
      1138        16  CHL1      H18A           43.5295337887      -11.8350443919        9.5372750000  MEMB      16              0.0000000000
      1139        16  CHL1      H18B           42.4719487889      -12.9739790621       10.3882850000  MEMB      16              0.0000000000
      1140        16  CHL1      H18C           42.1121057157      -12.6367761214        8.6847350000  MEMB      16              0.0000000000
      1141        16  CHL1      C12            42.5008593046       -9.7570971860       10.8881650000  MEMB      16              0.0000000000
      1142        16  CHL1      H12A           43.3778005722       -9.3481985429       10.3421950000  MEMB      16              0.0000000000
      1143        16  CHL1      H12B           41.7124016671       -8.9992928262       11.0841050000  MEMB      16              0.0000000000
      1144        16  CHL1      C11            42.9615801228      -10.4230535557       12.2046350000  MEMB      16              0.0000000000
      1145        16  CHL1      H11A           43.7354012434      -11.1621285568       11.9058050000  MEMB      16              0.0000000000
      1146        16  CHL1      H11B           43.5062642784       -9.6583083873       12.7985950000  MEMB      16              0.0000000000
      1147        16  CHL1      C9             41.8275520224      -11.1071252102       13.0726050000  MEMB      16              0.0000000000
      1148        16  CHL1      H9             41.1904079460      -10.2325829360       13.3246850000  MEMB      16              0.0000000000
      1149        16  CHL1      C10            42.2938631427      -11.7345057128       14.4190450000  MEMB      16              0.0000000000
      1150        16  CHL1      C19            43.1617067100      -12.9506829537       14.0287450000  MEMB      16              0.0000000000
      1151        16  CHL1      H19A           42.7161329102      -13.5372086839       13.1970250000  MEMB      16              0.0000000000
      1152        16  CHL1      H19B           44.1660411023      -12.6063026754       13.7015550000  MEMB      16              0.0000000000
      1153        16  CHL1      H19C           43.4230253581      -13.6246746868       14.8724150000  MEMB      16              0.0000000000
      1154        16  CHL1      C1             42.8333453228      -10.5695267822       15.3278850000  MEMB      16              0.0000000000
      1155        16  CHL1      H1A            43.7998269567      -10.2323684346       14.8959650000  MEMB      16              0.0000000000
      1156        16  CHL1      H1B            42.0857489889       -9.7510830501       15.2532750000  MEMB      16              0.0000000000
      1157        16  CHL1      C2             43.1692713799      -11.0043242019       16.6992850000  MEMB      16              0.0000000000
      1158        16  CHL1      H2A            43.6752645918      -10.1830377622       17.2504550000  MEMB      16              0.0000000000
      1159        16  CHL1      H2B            43.8730968824      -11.8629812654       16.6586250000  MEMB      16              0.0000000000
      1160        16  CHL1      C20            41.7131700848      -10.2483316224        7.4054350000  MEMB      16              0.0000000000
      1161        16  CHL1      H20            41.9645171069      -11.2483022834        6.9916750000  MEMB      16              0.0000000000
      1162        16  CHL1      C21            42.9620453862       -9.3999608783        7.4787650000  MEMB      16              0.0000000000
      1163        16  CHL1      H21A           42.7573549998       -8.3683748993        7.8368750000  MEMB      16              0.0000000000
      1164        16  CHL1      H21B           43.5762802305       -9.3176497797        6.5566650000  MEMB      16              0.0000000000
      1165        16  CHL1      H21C           43.7095778465       -9.8294935734        8.1794850000  MEMB      16              0.0000000000
      1166        16  CHL1      C22            40.7267460775       -9.6256727062        6.4218950000  MEMB      16              0.0000000000
      1167        16  CHL1      H22A           39.8555009043      -10.3146812186        6.3990450000  MEMB      16              0.0000000000
      1168        16  CHL1      H22B           40.2552732832       -8.6935122127        6.8001850000  MEMB      16              0.0000000000
      1169        16  CHL1      C23            41.2396615635       -9.4754468896        4.9827550000  MEMB      16              0.0000000000
      1170        16  CHL1      H23A           41.6801521429       -8.4611214472        4.8758050000  MEMB      16              0.0000000000
      1171        16  CHL1      H23B           42.0688649977      -10.2133978607        5.0294750000  MEMB      16              0.0000000000
      1172        16  CHL1      C24            40.1730554914       -9.8787753306        3.9783350000  MEMB      16              0.0000000000
      1173        16  CHL1      H24A           39.9456611328      -10.9662430634        3.9837750000  MEMB      16              0.0000000000
      1174        16  CHL1      H24B           39.2059805916       -9.3934228383        4.2303650000  MEMB      16              0.0000000000
      1175        16  CHL1      C25            40.6523243477       -9.5956991489        2.5060350000  MEMB      16              0.0000000000
      1176        16  CHL1      H25            40.7844208866       -8.4925995106        2.5001650000  MEMB      16              0.0000000000
      1177        16  CHL1      C26            41.8162978991      -10.3673294724        1.9822950000  MEMB      16              0.0000000000
      1178        16  CHL1      H26A           42.1029415106      -10.0902509880        0.9452850000  MEMB      16              0.0000000000
      1179        16  CHL1      H26B           42.7133407970      -10.1470140483        2.5996150000  MEMB      16              0.0000000000
      1180        16  CHL1      H26C           41.5188591575      -11.4377129782        1.9710750000  MEMB      16              0.0000000000
      1181        16  CHL1      C27            39.5248483558       -9.8863670855        1.5278850000  MEMB      16              0.0000000000
      1182        16  CHL1      H27A           39.3583492550      -10.9841027480        1.4881750000  MEMB      16              0.0000000000
      1183        16  CHL1      H27B           38.5212487131       -9.4724516847        1.7640450000  MEMB      16              0.0000000000
      1184        16  CHL1      H27C           39.8123567742       -9.3929099452        0.5749150000  MEMB      16              0.0000000000
      1185        17  CHL1      C3            -53.3773300470       29.3026037206       17.2766150000  MEMB      17              0.0000000000
      1186        17  CHL1      H3            -54.4077277511       29.5519789280       16.9443150000  MEMB      17              0.0000000000
      1187        17  CHL1      O3            -53.3750377530       29.4025922794       18.7233850000  MEMB      17              0.0000000000
      1188        17  CHL1      H3'           -52.4925411514       29.1853623049       19.0325950000  MEMB      17              0.0000000000
      1189        17  CHL1      C4            -53.1443326601       27.8973250455       16.7597750000  MEMB      17              0.0000000000
      1190        17  CHL1      H4A           -52.2235341688       27.5074852065       17.2439950000  MEMB      17              0.0000000000
      1191        17  CHL1      H4B           -53.8933922358       27.2115257485       17.2102450000  MEMB      17              0.0000000000
      1192        17  CHL1      C5            -52.9908027682       27.6923319803       15.2911550000  MEMB      17              0.0000000000
      1193        17  CHL1      C6            -53.7569138080       26.8013838155       14.7132950000  MEMB      17              0.0000000000
      1194        17  CHL1      H6            -54.3786561781       26.1613163431       15.3565250000  MEMB      17              0.0000000000
      1195        17  CHL1      C7            -53.7566648327       26.5267835596       13.2802450000  MEMB      17              0.0000000000
      1196        17  CHL1      H7A           -53.6660356198       25.4408671316       13.0637050000  MEMB      17              0.0000000000
      1197        17  CHL1      H7B           -54.7375449870       26.8323421922       12.8573650000  MEMB      17              0.0000000000
      1198        17  CHL1      C8            -52.6681830947       27.2643373981       12.4876750000  MEMB      17              0.0000000000
      1199        17  CHL1      H8            -51.7164728230       26.7083641045       12.6272350000  MEMB      17              0.0000000000
      1200        17  CHL1      C14           -53.0439938636       27.4902923318       11.0001750000  MEMB      17              0.0000000000
      1201        17  CHL1      H14           -53.9122960921       28.1668847252       11.1504750000  MEMB      17              0.0000000000
      1202        17  CHL1      C15           -53.5915227941       26.2419181935       10.2522550000  MEMB      17              0.0000000000
      1203        17  CHL1      H15A          -52.9120456561       25.3986262200       10.5002350000  MEMB      17              0.0000000000
      1204        17  CHL1      H15B          -54.6392330068       26.0071513648       10.5377350000  MEMB      17              0.0000000000
      1205        17  CHL1      C16           -53.4541107128       26.7123950899        8.8413150000  MEMB      17              0.0000000000
      1206        17  CHL1      H16A          -52.7613707382       26.0614506991        8.2662450000  MEMB      17              0.0000000000
      1207        17  CHL1      H16B          -54.4445963903       26.7163506953        8.3380750000  MEMB      17              0.0000000000
      1208        17  CHL1      C17           -52.8442763179       28.1105035072        8.7747550000  MEMB      17              0.0000000000
      1209        17  CHL1      H17           -53.7014433169       28.8171131417        8.7915650000  MEMB      17              0.0000000000
      1210        17  CHL1      C13           -52.0441230246       28.1884860904       10.0907950000  MEMB      17              0.0000000000
      1211        17  CHL1      C18           -50.7478797259       27.3287871959        9.9415250000  MEMB      17              0.0000000000
      1212        17  CHL1      H18A          -50.9980404005       26.3255223804        9.5350750000  MEMB      17              0.0000000000
      1213        17  CHL1      H18B          -50.1135576894       27.7020130245        9.1092550000  MEMB      17              0.0000000000
      1214        17  CHL1      H18C          -50.0698616090       27.2090742527       10.8134650000  MEMB      17              0.0000000000
      1215        17  CHL1      C12           -51.7648745143       29.5957142555       10.7083250000  MEMB      17              0.0000000000
      1216        17  CHL1      H12A          -50.8922234556       30.0843431066       10.2245450000  MEMB      17              0.0000000000
      1217        17  CHL1      H12B          -52.6219037552       30.2766473574       10.5181450000  MEMB      17              0.0000000000
      1218        17  CHL1      C11           -51.4030340509       29.5606351798       12.2241450000  MEMB      17              0.0000000000
      1219        17  CHL1      H11A          -50.4205032799       29.0456768703       12.2855750000  MEMB      17              0.0000000000
      1220        17  CHL1      H11B          -51.1349698937       30.5598831542       12.6290850000  MEMB      17              0.0000000000
      1221        17  CHL1      C9            -52.4485300433       28.7311492605       13.0693450000  MEMB      17              0.0000000000
      1222        17  CHL1      H9            -53.3827324445       29.3282104522       12.9979750000  MEMB      17              0.0000000000
      1223        17  CHL1      C10           -52.1229806060       28.7506419854       14.5860450000  MEMB      17              0.0000000000
      1224        17  CHL1      C19           -50.6621890331       28.4506369496       14.7106150000  MEMB      17              0.0000000000
      1225        17  CHL1      H19A          -50.1100907846       29.3956813360       14.5198850000  MEMB      17              0.0000000000
      1226        17  CHL1      H19B          -50.2997418669       28.1764226434       15.7244050000  MEMB      17              0.0000000000
      1227        17  CHL1      H19C          -50.2523706087       27.6003677573       14.1245950000  MEMB      17              0.0000000000
      1228        17  CHL1      C1            -52.4897968429       30.1512128193       15.0715750000  MEMB      17              0.0000000000
      1229        17  CHL1      H1A           -51.9131424692       30.9599948702       14.5739250000  MEMB      17              0.0000000000
      1230        17  CHL1      H1B           -53.5548112734       30.2810851253       14.7831150000  MEMB      17              0.0000000000
      1231        17  CHL1      C2            -52.4374458561       30.3075649814       16.6400350000  MEMB      17              0.0000000000
      1232        17  CHL1      H2A           -52.6799019138       31.3461623922       16.9512650000  MEMB      17              0.0000000000
      1233        17  CHL1      H2B           -51.4192130294       29.9802609568       16.9406650000  MEMB      17              0.0000000000
      1234        17  CHL1      C20           -52.1239396463       28.3401162143        7.4397650000  MEMB      17              0.0000000000
      1235        17  CHL1      H20           -51.2894517266       27.6813594070        7.1173050000  MEMB      17              0.0000000000
      1236        17  CHL1      C21           -51.3793389647       29.7040259584        7.4871250000  MEMB      17              0.0000000000
      1237        17  CHL1      H21A          -52.1123804034       30.5143674812        7.6879050000  MEMB      17              0.0000000000
      1238        17  CHL1      H21B          -50.8123297727       30.0589547878        6.6000850000  MEMB      17              0.0000000000
      1239        17  CHL1      H21C          -50.6233948253       29.5955606064        8.2940450000  MEMB      17              0.0000000000
      1240        17  CHL1      C22           -53.1831199635       28.4306652432        6.2239350000  MEMB      17              0.0000000000
      1241        17  CHL1      H22A          -53.8971760425       27.5796349097        6.2377850000  MEMB      17              0.0000000000
      1242        17  CHL1      H22B          -53.9154566167       29.2647422369        6.2720750000  MEMB      17              0.0000000000
      1243        17  CHL1      C23           -52.5882540585       28.4658743440        4.8254050000  MEMB      17              0.0000000000
      1244        17  CHL1      H23A          -51.8151251618       29.2536436380        4.6988650000  MEMB      17              0.0000000000
      1245        17  CHL1      H23B          -52.0661670045       27.4911993201        4.7169750000  MEMB      17              0.0000000000
      1246        17  CHL1      C24           -53.6981155889       28.6726511441        3.7352350000  MEMB      17              0.0000000000
      1247        17  CHL1      H24A          -54.6016940420       28.0302146713        3.8069150000  MEMB      17              0.0000000000
      1248        17  CHL1      H24B          -54.0775156771       29.7062147578        3.8839950000  MEMB      17              0.0000000000
      1249        17  CHL1      C25           -53.1064010255       28.4300801236        2.3664550000  MEMB      17              0.0000000000
      1250        17  CHL1      H25           -52.5746363971       27.4579417415        2.2858050000  MEMB      17              0.0000000000
      1251        17  CHL1      C26           -54.1547071221       28.3165825709        1.2604550000  MEMB      17              0.0000000000
      1252        17  CHL1      H26A          -53.7970832610       28.3379925451        0.2088050000  MEMB      17              0.0000000000
      1253        17  CHL1      H26B          -54.7000491726       27.3871834325        1.5308750000  MEMB      17              0.0000000000
      1254        17  CHL1      H26C          -54.8063579088       29.2119439430        1.3500050000  MEMB      17              0.0000000000
      1255        17  CHL1      C27           -52.3156719040       29.6376739777        1.8640550000  MEMB      17              0.0000000000
      1256        17  CHL1      H27A          -53.0726432087       30.4418037688        1.7428850000  MEMB      17              0.0000000000
      1257        17  CHL1      H27B          -51.5296935121       29.8684229747        2.6145950000  MEMB      17              0.0000000000
      1258        17  CHL1      H27C          -51.7525909187       29.4868303697        0.9182750000  MEMB      17              0.0000000000
      1259        18  CHL1      C3             20.1676215810      -41.1258239574       17.3072500000  MEMB      18              0.0000000000
      1260        18  CHL1      H3             19.3324072579      -40.6769829190       16.7282100000  MEMB      18              0.0000000000
      1261        18  CHL1      O3             19.8937676190      -40.9858058426       18.6927500000  MEMB      18              0.0000000000
      1262        18  CHL1      H3'            18.9397065610      -40.9074763557       18.7651800000  MEMB      18              0.0000000000
      1263        18  CHL1      C4             20.1323759912      -42.6543037820       16.8892400000  MEMB      18              0.0000000000
      1264        18  CHL1      H4A            20.9239881768      -43.0932773947       17.5334300000  MEMB      18              0.0000000000
      1265        18  CHL1      H4B            19.1353203795      -43.0329794557       17.2003800000  MEMB      18              0.0000000000
      1266        18  CHL1      C5             20.3899018764      -42.8194309848       15.4030600000  MEMB      18              0.0000000000
      1267        18  CHL1      C6             19.4737961614      -43.3977386616       14.5876900000  MEMB      18              0.0000000000
      1268        18  CHL1      H6             18.5224450537      -43.7842731655       14.9820600000  MEMB      18              0.0000000000
      1269        18  CHL1      C7             19.7402782636      -43.6765614552       13.1128400000  MEMB      18              0.0000000000
      1270        18  CHL1      H7A            19.5070454334      -44.7311753762       12.8526100000  MEMB      18              0.0000000000
      1271        18  CHL1      H7B            19.0985573397      -42.9770841902       12.5355700000  MEMB      18              0.0000000000
      1272        18  CHL1      C8             21.2015447333      -43.4384634565       12.6824200000  MEMB      18              0.0000000000
      1273        18  CHL1      H8             21.8973585553      -44.2630772616       12.9473300000  MEMB      18              0.0000000000
      1274        18  CHL1      C14            21.1982800848      -43.2399715789       11.1958500000  MEMB      18              0.0000000000
      1275        18  CHL1      H14            20.6421550402      -42.2952177955       11.0156000000  MEMB      18              0.0000000000
      1276        18  CHL1      C15            20.5809880631      -44.3749161019       10.3344100000  MEMB      18              0.0000000000
      1277        18  CHL1      H15A           20.8754941493      -45.3818464211       10.7000500000  MEMB      18              0.0000000000
      1278        18  CHL1      H15B           19.4741380282      -44.3695820986       10.4302400000  MEMB      18              0.0000000000
      1279        18  CHL1      C16            21.2282089963      -44.1859475906        8.9270900000  MEMB      18              0.0000000000
      1280        18  CHL1      H16A           21.8151582151      -45.1165711550        8.7729800000  MEMB      18              0.0000000000
      1281        18  CHL1      H16B           20.4984088357      -43.9482937188        8.1238300000  MEMB      18              0.0000000000
      1282        18  CHL1      C17            22.2496051254      -43.0218537798        9.0809800000  MEMB      18              0.0000000000
      1283        18  CHL1      H17            21.6827303706      -42.0708768275        8.9881400000  MEMB      18              0.0000000000
      1284        18  CHL1      C13            22.6222098828      -43.0802948651       10.5641800000  MEMB      18              0.0000000000
      1285        18  CHL1      C18            23.4707097457      -44.3314624506       10.8262300000  MEMB      18              0.0000000000
      1286        18  CHL1      H18A           22.8514458260      -45.2327650791       10.6300800000  MEMB      18              0.0000000000
      1287        18  CHL1      H18B           24.4343573104      -44.4666180882       10.2900900000  MEMB      18              0.0000000000
      1288        18  CHL1      H18C           23.7398559181      -44.3936391579       11.9023400000  MEMB      18              0.0000000000
      1289        18  CHL1      C12            23.2337057728      -41.8321432802       11.1580100000  MEMB      18              0.0000000000
      1290        18  CHL1      H12A           24.3034369207      -41.7823207823       10.8621700000  MEMB      18              0.0000000000
      1291        18  CHL1      H12B           22.8011570357      -40.8583838897       10.8433500000  MEMB      18              0.0000000000
      1292        18  CHL1      C11            23.1714803114      -41.8578153904       12.6931700000  MEMB      18              0.0000000000
      1293        18  CHL1      H11A           23.8396499174      -42.6632624347       13.0661800000  MEMB      18              0.0000000000
      1294        18  CHL1      H11B           23.4144171785      -40.8099229028       12.9710800000  MEMB      18              0.0000000000
      1295        18  CHL1      C9             21.7627537959      -42.2494605992       13.3282200000  MEMB      18              0.0000000000
      1296        18  CHL1      H9             21.2158261553      -41.3154161463       13.0777000000  MEMB      18              0.0000000000
      1297        18  CHL1      C10            21.7674333401      -42.3001135642       14.9152900000  MEMB      18              0.0000000000
      1298        18  CHL1      C19            22.9205091921      -43.2861469802       15.5439600000  MEMB      18              0.0000000000
      1299        18  CHL1      H19A           22.8261480060      -44.3037427304       15.1081600000  MEMB      18              0.0000000000
      1300        18  CHL1      H19B           23.8643433652      -42.7995241543       15.2173200000  MEMB      18              0.0000000000
      1301        18  CHL1      H19C           22.8093678335      -43.2567677189       16.6489900000  MEMB      18              0.0000000000
      1302        18  CHL1      C1             22.0115213919      -40.7960572547       15.4310700000  MEMB      18              0.0000000000
      1303        18  CHL1      H1A            23.1007240741      -40.6117245954       15.3129200000  MEMB      18              0.0000000000
      1304        18  CHL1      H1B            21.5051697456      -40.0758621358       14.7533900000  MEMB      18              0.0000000000
      1305        18  CHL1      C2             21.5090548402      -40.4167753266       16.8945500000  MEMB      18              0.0000000000
      1306        18  CHL1      H2A            21.3679869355      -39.3326173455       17.0921100000  MEMB      18              0.0000000000
      1307        18  CHL1      H2B            22.2716169047      -40.8585124641       17.5710700000  MEMB      18              0.0000000000
      1308        18  CHL1      C20            23.4463483832      -43.1076860656        8.0718200000  MEMB      18              0.0000000000
      1309        18  CHL1      H20            24.1299713185      -43.9742774074        8.1983000000  MEMB      18              0.0000000000
      1310        18  CHL1      C21            24.3111646499      -41.7940472439        8.1487000000  MEMB      18              0.0000000000
      1311        18  CHL1      H21A           23.5940725671      -40.9791989197        8.3856000000  MEMB      18              0.0000000000
      1312        18  CHL1      H21B           24.7927183651      -41.5921238183        7.1680600000  MEMB      18              0.0000000000
      1313        18  CHL1      H21C           25.0536499656      -41.9500106216        8.9603100000  MEMB      18              0.0000000000
      1314        18  CHL1      C22            23.1125674186      -43.3604042172        6.5563800000  MEMB      18              0.0000000000
      1315        18  CHL1      H22A           24.0826743941      -43.3807353643        6.0152700000  MEMB      18              0.0000000000
      1316        18  CHL1      H22B           22.5531487427      -44.3137068763        6.4442000000  MEMB      18              0.0000000000
      1317        18  CHL1      C23            22.2160005539      -42.3056815399        6.0952900000  MEMB      18              0.0000000000
      1318        18  CHL1      H23A           21.4322253623      -42.2730859374        6.8820200000  MEMB      18              0.0000000000
      1319        18  CHL1      H23B           22.6361850697      -41.2776255453        6.1244700000  MEMB      18              0.0000000000
      1320        18  CHL1      C24            21.4991320786      -42.7419250044        4.7552600000  MEMB      18              0.0000000000
      1321        18  CHL1      H24A           21.4373267472      -43.8477712438        4.6680800000  MEMB      18              0.0000000000
      1322        18  CHL1      H24B           20.4526498103      -42.3776225334        4.8358000000  MEMB      18              0.0000000000
      1323        18  CHL1      C25            22.0700221904      -42.1259527681        3.4887900000  MEMB      18              0.0000000000
      1324        18  CHL1      H25            21.9178554721      -41.0254186812        3.4868600000  MEMB      18              0.0000000000
      1325        18  CHL1      C26            23.5122484631      -42.4889447081        3.4208800000  MEMB      18              0.0000000000
      1326        18  CHL1      H26A           24.1573135147      -42.2551386704        4.2946900000  MEMB      18              0.0000000000
      1327        18  CHL1      H26B           23.5379749550      -43.5989629966        3.3818600000  MEMB      18              0.0000000000
      1328        18  CHL1      H26C           24.0798257150      -42.1602924237        2.5241300000  MEMB      18              0.0000000000
      1329        18  CHL1      C27            21.3978561589      -42.5901234653        2.2190500000  MEMB      18              0.0000000000
      1330        18  CHL1      H27A           21.7565322848      -43.5927391932        1.9021500000  MEMB      18              0.0000000000
      1331        18  CHL1      H27B           20.2996872867      -42.7335101915        2.3073800000  MEMB      18              0.0000000000
      1332        18  CHL1      H27C           21.5790187797      -41.7985533236        1.4608200000  MEMB      18              0.0000000000
      1333        19  CHL1      C3              4.3711012811       35.9851514206       17.3030300000  MEMB      19              0.0000000000
      1334        19  CHL1      H3              5.0744502230       36.8439938082       17.3477800000  MEMB      19              0.0000000000
      1335        19  CHL1      O3              4.1896553589       35.5484947794       18.6969700000  MEMB      19              0.0000000000
      1336        19  CHL1      H3'             4.1271739170       36.3621830177       19.2025400000  MEMB      19              0.0000000000
      1337        19  CHL1      C4              3.1031389283       36.5336860919       16.7102000000  MEMB      19              0.0000000000
      1338        19  CHL1      H4A             2.1845660469       35.9131333135       16.7841800000  MEMB      19              0.0000000000
      1339        19  CHL1      H4B             2.8447230695       37.3652907359       17.4001000000  MEMB      19              0.0000000000
      1340        19  CHL1      C5              3.2513641726       36.9678369270       15.2936000000  MEMB      19              0.0000000000
      1341        19  CHL1      C6              3.0725933799       38.2590981731       14.9014600000  MEMB      19              0.0000000000
      1342        19  CHL1      H6              2.6858396481       38.9702575978       15.6462300000  MEMB      19              0.0000000000
      1343        19  CHL1      C7              3.3499850798       38.7022355343       13.5039000000  MEMB      19              0.0000000000
      1344        19  CHL1      H7A             2.6058273244       39.4802232438       13.2295100000  MEMB      19              0.0000000000
      1345        19  CHL1      H7B             4.3235831044       39.2262695699       13.3951800000  MEMB      19              0.0000000000
      1346        19  CHL1      C8              3.2595889624       37.5367652680       12.4025400000  MEMB      19              0.0000000000
      1347        19  CHL1      H8              2.1686490359       37.3278112858       12.3802000000  MEMB      19              0.0000000000
      1348        19  CHL1      C14             3.8429449873       38.0822120731       11.0118700000  MEMB      19              0.0000000000
      1349        19  CHL1      H14             4.8421604868       38.4540330623       11.3243400000  MEMB      19              0.0000000000
      1350        19  CHL1      C15             3.1551133889       39.2159535599       10.3528900000  MEMB      19              0.0000000000
      1351        19  CHL1      H15A            2.0573566778       39.1234402319       10.4967300000  MEMB      19              0.0000000000
      1352        19  CHL1      H15B            3.5199361921       40.0988145224       10.9201500000  MEMB      19              0.0000000000
      1353        19  CHL1      C16             3.5729568913       39.1903002664        8.9472900000  MEMB      19              0.0000000000
      1354        19  CHL1      H16A            2.6342070108       39.0215368291        8.3775600000  MEMB      19              0.0000000000
      1355        19  CHL1      H16B            4.0460285063       40.0818472958        8.4829100000  MEMB      19              0.0000000000
      1356        19  CHL1      C17             4.3933259010       37.8763234701        8.6920600000  MEMB      19              0.0000000000
      1357        19  CHL1      H17             5.4642489646       38.1610564818        8.7719500000  MEMB      19              0.0000000000
      1358        19  CHL1      C13             3.9390632271       37.0645179370        9.9321300000  MEMB      19              0.0000000000
      1359        19  CHL1      C18             2.5365791215       36.4280772889        9.6361800000  MEMB      19              0.0000000000
      1360        19  CHL1      H18A            1.7900013521       37.2246661605        9.4303200000  MEMB      19              0.0000000000
      1361        19  CHL1      H18B            2.5092751977       35.7819961570        8.7327600000  MEMB      19              0.0000000000
      1362        19  CHL1      H18C            2.1563987874       35.8102717853       10.4776600000  MEMB      19              0.0000000000
      1363        19  CHL1      C12             4.9867395018       36.0023110105       10.4924900000  MEMB      19              0.0000000000
      1364        19  CHL1      H12A            5.1374260327       35.1017093666        9.8596200000  MEMB      19              0.0000000000
      1365        19  CHL1      H12B            5.8357687023       36.6371650631       10.8247900000  MEMB      19              0.0000000000
      1366        19  CHL1      C11             4.4663897354       35.4380071540       11.8363200000  MEMB      19              0.0000000000
      1367        19  CHL1      H11A            3.6514351673       34.7103587372       11.6346200000  MEMB      19              0.0000000000
      1368        19  CHL1      H11B            5.2401036510       34.7316490187       12.2061300000  MEMB      19              0.0000000000
      1369        19  CHL1      C9              4.1765004709       36.3989377939       12.9098800000  MEMB      19              0.0000000000
      1370        19  CHL1      H9              5.1362855435       36.8778472813       13.1993300000  MEMB      19              0.0000000000
      1371        19  CHL1      C10             3.7349072040       35.8355911158       14.3171400000  MEMB      19              0.0000000000
      1372        19  CHL1      C19             2.5338848436       34.8379289692       14.2078400000  MEMB      19              0.0000000000
      1373        19  CHL1      H19A            1.6697622344       35.4225336630       13.8259300000  MEMB      19              0.0000000000
      1374        19  CHL1      H19B            2.8115025618       34.0220613833       13.5067000000  MEMB      19              0.0000000000
      1375        19  CHL1      H19C            2.2790056411       34.3756918367       15.1854300000  MEMB      19              0.0000000000
      1376        19  CHL1      C1              4.9490489832       35.0733854966       14.9328000000  MEMB      19              0.0000000000
      1377        19  CHL1      H1A             5.0641161379       34.1183223043       14.3769900000  MEMB      19              0.0000000000
      1378        19  CHL1      H1B             5.9157453942       35.5873935295       14.7440700000  MEMB      19              0.0000000000
      1379        19  CHL1      C2              4.8224051575       34.7632706933       16.4461900000  MEMB      19              0.0000000000
      1380        19  CHL1      H2A             5.7802683962       34.2857876741       16.7442200000  MEMB      19              0.0000000000
      1381        19  CHL1      H2B             3.9594946533       34.0957089290       16.6561100000  MEMB      19              0.0000000000
      1382        19  CHL1      C20             4.1702227891       37.3137664166        7.3173200000  MEMB      19              0.0000000000
      1383        19  CHL1      H20             3.0995480834       37.0316621724        7.2256400000  MEMB      19              0.0000000000
      1384        19  CHL1      C21             4.8873073865       36.0385401388        6.9641700000  MEMB      19              0.0000000000
      1385        19  CHL1      H21A            4.3535203226       35.5270474424        6.1348600000  MEMB      19              0.0000000000
      1386        19  CHL1      H21B            4.7673525854       35.2705055340        7.7579300000  MEMB      19              0.0000000000
      1387        19  CHL1      H21C            5.9796676639       36.0257249593        6.7619400000  MEMB      19              0.0000000000
      1388        19  CHL1      C22             4.5138917197       38.3082807058        6.2853900000  MEMB      19              0.0000000000
      1389        19  CHL1      H22A            3.6840160437       39.0446805315        6.2274800000  MEMB      19              0.0000000000
      1390        19  CHL1      H22B            5.4742699737       38.8199994394        6.5093000000  MEMB      19              0.0000000000
      1391        19  CHL1      C23             4.6565483522       37.9013611809        4.8044600000  MEMB      19              0.0000000000
      1392        19  CHL1      H23A            5.4602866104       37.1506755480        4.6469900000  MEMB      19              0.0000000000
      1393        19  CHL1      H23B            3.6884015262       37.4274263473        4.5354100000  MEMB      19              0.0000000000
      1394        19  CHL1      C24             4.9316553298       39.0702615699        3.8171300000  MEMB      19              0.0000000000
      1395        19  CHL1      H24A            4.1448000438       39.8454147456        3.9367200000  MEMB      19              0.0000000000
      1396        19  CHL1      H24B            5.8792401051       39.5809786028        4.0920300000  MEMB      19              0.0000000000
      1397        19  CHL1      C25             4.9485393799       38.7555212207        2.3466500000  MEMB      19              0.0000000000
      1398        19  CHL1      H25             5.6739890998       37.9430736692        2.1276000000  MEMB      19              0.0000000000
      1399        19  CHL1      C26             3.5837156485       38.2914876627        1.7495800000  MEMB      19              0.0000000000
      1400        19  CHL1      H26A            3.7523012044       38.1391241826        0.6620600000  MEMB      19              0.0000000000
      1401        19  CHL1      H26B            3.2835544356       37.3463326705        2.2504800000  MEMB      19              0.0000000000
      1402        19  CHL1      H26C            2.8030912963       39.0552221404        1.9536800000  MEMB      19              0.0000000000
      1403        19  CHL1      C27             5.3391155473       39.9824078768        1.5465700000  MEMB      19              0.0000000000
      1404        19  CHL1      H27A            5.2952585830       39.8664668967        0.4425000000  MEMB      19              0.0000000000
      1405        19  CHL1      H27B            4.7468162253       40.8968982101        1.7638200000  MEMB      19              0.0000000000
      1406        19  CHL1      H27C            6.3569595724       40.1841616581        1.9435800000  MEMB      19              0.0000000000
      1407        20  CHL1      C3            -39.0280544613      -38.2480844429       17.4167150000  MEMB      20              0.0000000000
      1408        20  CHL1      H3            -39.6340262667      -37.3773187732       17.7466850000  MEMB      20              0.0000000000
      1409        20  CHL1      O3            -38.5154533387      -38.8374037571       18.5832850000  MEMB      20              0.0000000000
      1410        20  CHL1      H3'           -38.0053637980      -38.1304955078       18.9853950000  MEMB      20              0.0000000000
      1411        20  CHL1      C4            -39.7946767269      -39.3320863075       16.6827050000  MEMB      20              0.0000000000
      1412        20  CHL1      H4A           -39.0802862952      -40.1819203579       16.7245050000  MEMB      20              0.0000000000
      1413        20  CHL1      H4B           -40.5743907744      -39.6737009919       17.3966050000  MEMB      20              0.0000000000
      1414        20  CHL1      C5            -40.3533807720      -38.9794692954       15.3039350000  MEMB      20              0.0000000000
      1415        20  CHL1      C6            -41.6326499332      -39.0635170772       14.9231650000  MEMB      20              0.0000000000
      1416        20  CHL1      H6            -42.4298968026      -39.3554192737       15.6225850000  MEMB      20              0.0000000000
      1417        20  CHL1      C7            -42.0792906991      -38.7127276155       13.5967750000  MEMB      20              0.0000000000
      1418        20  CHL1      H7A           -42.9243765896      -39.3672863918       13.2939750000  MEMB      20              0.0000000000
      1419        20  CHL1      H7B           -42.4528207253      -37.6664213926       13.5896750000  MEMB      20              0.0000000000
      1420        20  CHL1      C8            -40.8913752280      -38.6997000830       12.5544850000  MEMB      20              0.0000000000
      1421        20  CHL1      H8            -40.5468398518      -39.7443963147       12.3988450000  MEMB      20              0.0000000000
      1422        20  CHL1      C14           -41.4121310527      -38.1537253755       11.2263850000  MEMB      20              0.0000000000
      1423        20  CHL1      H14           -41.6015716493      -37.0673726698       11.3615850000  MEMB      20              0.0000000000
      1424        20  CHL1      C15           -42.6794455323      -38.7732028152       10.6544550000  MEMB      20              0.0000000000
      1425        20  CHL1      H15A          -42.6056709405      -39.8699162792       10.8159350000  MEMB      20              0.0000000000
      1426        20  CHL1      H15B          -43.5728519291      -38.2377844480       11.0410950000  MEMB      20              0.0000000000
      1427        20  CHL1      C16           -42.5364417409      -38.4602594872        9.1351350000  MEMB      20              0.0000000000
      1428        20  CHL1      H16A          -42.4462528295      -39.3968361952        8.5443550000  MEMB      20              0.0000000000
      1429        20  CHL1      H16B          -43.3535408782      -37.8317158954        8.7208650000  MEMB      20              0.0000000000
      1430        20  CHL1      C17           -41.2068360232      -37.6480894004        8.8824850000  MEMB      20              0.0000000000
      1431        20  CHL1      H17           -41.3263398112      -36.5435314479        8.8817350000  MEMB      20              0.0000000000
      1432        20  CHL1      C13           -40.3407254739      -38.0551181450       10.1710750000  MEMB      20              0.0000000000
      1433        20  CHL1      C18           -39.7423660999      -39.4655098268        9.8895950000  MEMB      20              0.0000000000
      1434        20  CHL1      H18A          -38.8321968081      -39.4859071716        9.2528050000  MEMB      20              0.0000000000
      1435        20  CHL1      H18B          -39.3918076750      -39.9805086094       10.8094850000  MEMB      20              0.0000000000
      1436        20  CHL1      H18C          -40.4223325932      -40.2072421080        9.4186350000  MEMB      20              0.0000000000
      1437        20  CHL1      C12           -39.2694584912      -37.0676892064       10.6199450000  MEMB      20              0.0000000000
      1438        20  CHL1      H12A          -38.3909063212      -36.9644566648        9.9477750000  MEMB      20              0.0000000000
      1439        20  CHL1      H12B          -39.7893124884      -36.0870344781       10.6688550000  MEMB      20              0.0000000000
      1440        20  CHL1      C11           -38.6366723025      -37.4609695337       11.9318450000  MEMB      20              0.0000000000
      1441        20  CHL1      H11A          -37.9271557812      -38.3039422579       11.7893450000  MEMB      20              0.0000000000
      1442        20  CHL1      H11B          -38.1290118829      -36.5380579299       12.2851650000  MEMB      20              0.0000000000
      1443        20  CHL1      C9            -39.6823315645      -37.9229584309       13.0749450000  MEMB      20              0.0000000000
      1444        20  CHL1      H9            -40.1527203002      -36.9641355968       13.3810650000  MEMB      20              0.0000000000
      1445        20  CHL1      C10           -39.1331951154      -38.5229135159       14.4350450000  MEMB      20              0.0000000000
      1446        20  CHL1      C19           -38.1693007686      -39.6378025742       14.1422650000  MEMB      20              0.0000000000
      1447        20  CHL1      H19A          -37.9202490368      -40.2264486822       15.0509850000  MEMB      20              0.0000000000
      1448        20  CHL1      H19B          -38.5396172192      -40.2626127135       13.3015450000  MEMB      20              0.0000000000
      1449        20  CHL1      H19C          -37.2141412548      -39.3042073190       13.6832350000  MEMB      20              0.0000000000
      1450        20  CHL1      C1            -38.3411123233      -37.4254502997       15.1804250000  MEMB      20              0.0000000000
      1451        20  CHL1      H1A           -37.5537700635      -37.0879184669       14.4729850000  MEMB      20              0.0000000000
      1452        20  CHL1      H1B           -39.0959334338      -36.6291307586       15.3549350000  MEMB      20              0.0000000000
      1453        20  CHL1      C2            -37.7982515297      -37.7216247234       16.5937150000  MEMB      20              0.0000000000
      1454        20  CHL1      H2A           -37.3736503851      -36.8888352974       17.1941250000  MEMB      20              0.0000000000
      1455        20  CHL1      H2B           -37.0304278619      -38.5195801146       16.5040050000  MEMB      20              0.0000000000
      1456        20  CHL1      C20           -40.5500300895      -38.0205602982        7.4719750000  MEMB      20              0.0000000000
      1457        20  CHL1      H20           -40.5044772596      -39.1303008556        7.4451550000  MEMB      20              0.0000000000
      1458        20  CHL1      C21           -39.1914830675      -37.3516951709        7.2395750000  MEMB      20              0.0000000000
      1459        20  CHL1      H21A          -38.6713663569      -37.4983361162        6.2688550000  MEMB      20              0.0000000000
      1460        20  CHL1      H21B          -38.5170467695      -37.7482165481        8.0283950000  MEMB      20              0.0000000000
      1461        20  CHL1      H21C          -39.3422531239      -36.2518874357        7.2844450000  MEMB      20              0.0000000000
      1462        20  CHL1      C22           -41.5377371817      -37.6497048596        6.2342150000  MEMB      20              0.0000000000
      1463        20  CHL1      H22A          -42.6170235819      -37.7788496875        6.4639650000  MEMB      20              0.0000000000
      1464        20  CHL1      H22B          -41.2812772618      -36.5950984716        5.9968550000  MEMB      20              0.0000000000
      1465        20  CHL1      C23           -41.3248149166      -38.4715121570        4.9197250000  MEMB      20              0.0000000000
      1466        20  CHL1      H23A          -40.2643996906      -38.2986738538        4.6369650000  MEMB      20              0.0000000000
      1467        20  CHL1      H23B          -41.6123308510      -39.5140931194        5.1740350000  MEMB      20              0.0000000000
      1468        20  CHL1      C24           -42.2547763172      -37.9420565163        3.7162950000  MEMB      20              0.0000000000
      1469        20  CHL1      H24A          -42.0992392450      -38.7087832505        2.9274550000  MEMB      20              0.0000000000
      1470        20  CHL1      H24B          -43.2630897019      -38.0508118869        4.1699650000  MEMB      20              0.0000000000
      1471        20  CHL1      C25           -41.9822813432      -36.5261280842        3.2448250000  MEMB      20              0.0000000000
      1472        20  CHL1      H25           -41.9930889912      -35.8235793444        4.1054350000  MEMB      20              0.0000000000
      1473        20  CHL1      C26           -40.6260569146      -36.4356058286        2.3931850000  MEMB      20              0.0000000000
      1474        20  CHL1      H26A          -40.5382422847      -37.0963354623        1.5043350000  MEMB      20              0.0000000000
      1475        20  CHL1      H26B          -40.6090399287      -35.4482597905        1.8840850000  MEMB      20              0.0000000000
      1476        20  CHL1      H26C          -39.6647689573      -36.6311739445        2.9147250000  MEMB      20              0.0000000000
      1477        20  CHL1      C27           -43.0759431609      -36.2665297717        2.2151650000  MEMB      20              0.0000000000
      1478        20  CHL1      H27A          -42.8195048971      -35.3328938088        1.6703050000  MEMB      20              0.0000000000
      1479        20  CHL1      H27B          -43.2746125118      -37.0882826265        1.4943450000  MEMB      20              0.0000000000
      1480        20  CHL1      H27C          -44.0252012262      -36.2163365515        2.7902250000  MEMB      20              0.0000000000
      1481        21  CHL1      C3             -1.8857911448      -36.7102787973       17.2878600000  MEMB      21              0.0000000000
      1482        21  CHL1      H3             -2.8287027275      -37.0772944040       16.8290200000  MEMB      21              0.0000000000
      1483        21  CHL1      O3             -2.0344595152      -36.6974374027       18.7121400000  MEMB      21              0.0000000000
      1484        21  CHL1      H3'            -2.7513518385      -36.0702163933       18.8315500000  MEMB      21              0.0000000000
      1485        21  CHL1      C4             -0.7995092853      -37.5965678894       16.8149400000  MEMB      21              0.0000000000
      1486        21  CHL1      H4A             0.0807062239      -37.1542527817       17.3286400000  MEMB      21              0.0000000000
      1487        21  CHL1      H4B            -0.8961130973      -38.5872819441       17.3083800000  MEMB      21              0.0000000000
      1488        21  CHL1      C5             -0.5386468260      -37.6723734137       15.3090500000  MEMB      21              0.0000000000
      1489        21  CHL1      C6             -0.5268536323      -38.8696340144       14.7617000000  MEMB      21              0.0000000000
      1490        21  CHL1      H6             -0.7479953220      -39.7713691613       15.3515800000  MEMB      21              0.0000000000
      1491        21  CHL1      C7             -0.2738361183      -39.0220076818       13.2833700000  MEMB      21              0.0000000000
      1492        21  CHL1      H7A             0.5234641625      -39.7812464368       13.1343600000  MEMB      21              0.0000000000
      1493        21  CHL1      H7B            -1.1903512852      -39.4903483857       12.8650800000  MEMB      21              0.0000000000
      1494        21  CHL1      C8              0.0680958342      -37.7423580560       12.5461500000  MEMB      21              0.0000000000
      1495        21  CHL1      H8              1.1697402331      -37.6494889641       12.6560900000  MEMB      21              0.0000000000
      1496        21  CHL1      C14            -0.2351352685      -37.9869568098       11.0614000000  MEMB      21              0.0000000000
      1497        21  CHL1      H14            -1.3439698389      -37.9765529414       10.9929100000  MEMB      21              0.0000000000
      1498        21  CHL1      C15             0.1689413440      -39.3654859344       10.4597600000  MEMB      21              0.0000000000
      1499        21  CHL1      H15A            1.1358488760      -39.8086559392       10.7807300000  MEMB      21              0.0000000000
      1500        21  CHL1      H15B           -0.6415995780      -40.0888161480       10.6924500000  MEMB      21              0.0000000000
      1501        21  CHL1      C16             0.1629245450      -39.1034861515        8.9421200000  MEMB      21              0.0000000000
      1502        21  CHL1      H16A            1.2257284761      -39.2224639153        8.6411200000  MEMB      21              0.0000000000
      1503        21  CHL1      H16B           -0.4062002417      -39.8928493062        8.4061000000  MEMB      21              0.0000000000
      1504        21  CHL1      C17            -0.2975610432      -37.6538736022        8.7608900000  MEMB      21              0.0000000000
      1505        21  CHL1      H17            -1.3986076811      -37.5618819344        8.6444300000  MEMB      21              0.0000000000
      1506        21  CHL1      C13             0.1355507407      -36.9438937496       10.0358200000  MEMB      21              0.0000000000
      1507        21  CHL1      C18             1.7224036992      -36.8048598359        9.9160200000  MEMB      21              0.0000000000
      1508        21  CHL1      H18A            2.0666761252      -36.2128262431        9.0412100000  MEMB      21              0.0000000000
      1509        21  CHL1      H18B            2.0783048389      -36.2584641113       10.8155200000  MEMB      21              0.0000000000
      1510        21  CHL1      H18C            2.2171010137      -37.7996121786        9.9080900000  MEMB      21              0.0000000000
      1511        21  CHL1      C12            -0.4495802726      -35.6089448463       10.5762400000  MEMB      21              0.0000000000
      1512        21  CHL1      H12A           -0.1337860646      -34.7262249031        9.9800900000  MEMB      21              0.0000000000
      1513        21  CHL1      H12B           -1.5154953298      -35.6113469412       10.2629600000  MEMB      21              0.0000000000
      1514        21  CHL1      C11            -0.2334856263      -35.3655429475       12.0427800000  MEMB      21              0.0000000000
      1515        21  CHL1      H11A            0.7937783491      -34.9880440986       12.2339700000  MEMB      21              0.0000000000
      1516        21  CHL1      H11B           -0.8641858953      -34.5075581199       12.3596600000  MEMB      21              0.0000000000
      1517        21  CHL1      C9             -0.7341423311      -36.4953982653       12.9945600000  MEMB      21              0.0000000000
      1518        21  CHL1      H9             -1.8250711460      -36.6003251496       12.8123800000  MEMB      21              0.0000000000
      1519        21  CHL1      C10            -0.4369736780      -36.3212886078       14.5007200000  MEMB      21              0.0000000000
      1520        21  CHL1      C19             0.9718956728      -35.7280075311       14.8377300000  MEMB      21              0.0000000000
      1521        21  CHL1      H19A            0.9338120757      -35.3306259737       15.8745300000  MEMB      21              0.0000000000
      1522        21  CHL1      H19B            1.7283328105      -36.5367362531       14.7478900000  MEMB      21              0.0000000000
      1523        21  CHL1      H19C            1.1920481962      -34.7706292710       14.3188000000  MEMB      21              0.0000000000
      1524        21  CHL1      C1             -1.6099880087      -35.4714825450       15.0903600000  MEMB      21              0.0000000000
      1525        21  CHL1      H1A            -1.4647445230      -34.4452597669       14.6902400000  MEMB      21              0.0000000000
      1526        21  CHL1      H1B            -2.6174455575      -35.8502153984       14.8148500000  MEMB      21              0.0000000000
      1527        21  CHL1      C2             -1.7273049191      -35.3157393277       16.6867600000  MEMB      21              0.0000000000
      1528        21  CHL1      H2A            -2.6195269416      -34.7109495256       16.9559800000  MEMB      21              0.0000000000
      1529        21  CHL1      H2B            -0.8537229241      -34.7620833892       17.0925300000  MEMB      21              0.0000000000
      1530        21  CHL1      C20             0.1124239434      -37.1145223089        7.3507100000  MEMB      21              0.0000000000
      1531        21  CHL1      H20             1.2200056460      -37.0880614282        7.2677500000  MEMB      21              0.0000000000
      1532        21  CHL1      C21            -0.4047907901      -35.6544048954        7.1931100000  MEMB      21              0.0000000000
      1533        21  CHL1      H21A            0.1873708319      -34.9680692531        7.8354500000  MEMB      21              0.0000000000
      1534        21  CHL1      H21B           -1.4261122762      -35.5428766190        7.6159300000  MEMB      21              0.0000000000
      1535        21  CHL1      H21C           -0.3587513698      -35.3720611151        6.1195700000  MEMB      21              0.0000000000
      1536        21  CHL1      C22            -0.2837394360      -38.0191509987        6.1627900000  MEMB      21              0.0000000000
      1537        21  CHL1      H22A           -0.4043173358      -39.0879512424        6.4410700000  MEMB      21              0.0000000000
      1538        21  CHL1      H22B           -1.3122901206      -37.8308875798        5.7873600000  MEMB      21              0.0000000000
      1539        21  CHL1      C23             0.6879540583      -37.8405577860        4.9872900000  MEMB      21              0.0000000000
      1540        21  CHL1      H23A            0.7348979239      -36.7740965847        4.6794600000  MEMB      21              0.0000000000
      1541        21  CHL1      H23B            1.7151778850      -38.0690371949        5.3435700000  MEMB      21              0.0000000000
      1542        21  CHL1      C24             0.2359127817      -38.7565569077        3.8575400000  MEMB      21              0.0000000000
      1543        21  CHL1      H24A            0.3201162709      -39.7935150954        4.2473500000  MEMB      21              0.0000000000
      1544        21  CHL1      H24B           -0.8223269948      -38.6907037540        3.5257100000  MEMB      21              0.0000000000
      1545        21  CHL1      C25             1.1122821097      -38.5535156479        2.6606000000  MEMB      21              0.0000000000
      1546        21  CHL1      H25             2.1544874006      -38.3968119655        3.0121400000  MEMB      21              0.0000000000
      1547        21  CHL1      C26             1.1002097787      -39.8580619686        1.7811300000  MEMB      21              0.0000000000
      1548        21  CHL1      H26A            0.0810715914      -40.0780782281        1.3973600000  MEMB      21              0.0000000000
      1549        21  CHL1      H26B            1.7804153537      -39.6282123517        0.9333000000  MEMB      21              0.0000000000
      1550        21  CHL1      H26C            1.4696744220      -40.7316527643        2.3596200000  MEMB      21              0.0000000000
      1551        21  CHL1      C27             0.6622482364      -37.4180464220        1.8340300000  MEMB      21              0.0000000000
      1552        21  CHL1      H27A           -0.4264826610      -37.4480321777        1.6147300000  MEMB      21              0.0000000000
      1553        21  CHL1      H27B            0.8599554678      -36.4994584811        2.4268300000  MEMB      21              0.0000000000
      1554        21  CHL1      H27C            1.2338526101      -37.4175606490        0.8813600000  MEMB      21              0.0000000000
      1555        22  CHL1      C3            -16.6356760084      -27.2576092009       17.3759700000  MEMB      22              0.0000000000
      1556        22  CHL1      H3            -16.4659911489      -26.2065676340       17.6935100000  MEMB      22              0.0000000000
      1557        22  CHL1      O3            -16.8377959916      -27.8668701991       18.6240300000  MEMB      22              0.0000000000
      1558        22  CHL1      H3'           -17.6534637238      -27.5014660541       18.9744100000  MEMB      22              0.0000000000
      1559        22  CHL1      C4            -17.8042805631      -27.3770364122       16.3898100000  MEMB      22              0.0000000000
      1560        22  CHL1      H4A           -18.0978634394      -28.4343295658       16.2158400000  MEMB      22              0.0000000000
      1561        22  CHL1      H4B           -18.7220244360      -26.8196662973       16.6751200000  MEMB      22              0.0000000000
      1562        22  CHL1      C5            -17.3480245565      -26.6481278832       15.1107300000  MEMB      22              0.0000000000
      1563        22  CHL1      C6            -18.0162627869      -25.6358237678       14.5782400000  MEMB      22              0.0000000000
      1564        22  CHL1      H6            -18.8804528770      -25.1523125646       15.0571800000  MEMB      22              0.0000000000
      1565        22  CHL1      C7            -17.6340932887      -25.1000417532       13.2009000000  MEMB      22              0.0000000000
      1566        22  CHL1      H7A           -18.5849182334      -25.0256460066       12.6310600000  MEMB      22              0.0000000000
      1567        22  CHL1      H7B           -17.1751828851      -24.0939488585       13.3081400000  MEMB      22              0.0000000000
      1568        22  CHL1      C8            -16.6043989826      -25.9207612454       12.3793300000  MEMB      22              0.0000000000
      1569        22  CHL1      H8            -17.1293836118      -26.8182829320       11.9879500000  MEMB      22              0.0000000000
      1570        22  CHL1      C14           -15.9892447857      -25.1137124494       11.2182500000  MEMB      22              0.0000000000
      1571        22  CHL1      H14           -15.4284056237      -24.3048472334       11.7335400000  MEMB      22              0.0000000000
      1572        22  CHL1      C15           -16.8822950717      -24.4505842939       10.2110600000  MEMB      22              0.0000000000
      1573        22  CHL1      H15A          -17.7338330678      -25.1167002246        9.9551700000  MEMB      22              0.0000000000
      1574        22  CHL1      H15B          -17.3565292501      -23.5170806371       10.5825500000  MEMB      22              0.0000000000
      1575        22  CHL1      C16           -15.9912989381      -24.1660432362        9.0059500000  MEMB      22              0.0000000000
      1576        22  CHL1      H16A          -16.4343458037      -24.7217080609        8.1519800000  MEMB      22              0.0000000000
      1577        22  CHL1      H16B          -15.9470094643      -23.0926916054        8.7226000000  MEMB      22              0.0000000000
      1578        22  CHL1      C17           -14.6537540032      -24.9277391316        9.2206200000  MEMB      22              0.0000000000
      1579        22  CHL1      H17           -13.9100787289      -24.1946824648        9.5999400000  MEMB      22              0.0000000000
      1580        22  CHL1      C13           -14.9890646229      -25.9636133629       10.3934900000  MEMB      22              0.0000000000
      1581        22  CHL1      C18           -15.6082961907      -27.2758154119        9.7468800000  MEMB      22              0.0000000000
      1582        22  CHL1      H18A          -16.4156951178      -27.0413609098        9.0206100000  MEMB      22              0.0000000000
      1583        22  CHL1      H18B          -14.8830243759      -27.8217649078        9.1063700000  MEMB      22              0.0000000000
      1584        22  CHL1      H18C          -15.9521760056      -28.0494098733       10.4663300000  MEMB      22              0.0000000000
      1585        22  CHL1      C12           -13.7881385229      -26.2918291429       11.3202400000  MEMB      22              0.0000000000
      1586        22  CHL1      H12A          -12.9612319491      -26.7670001410       10.7503500000  MEMB      22              0.0000000000
      1587        22  CHL1      H12B          -13.3435844379      -25.3461957968       11.6976900000  MEMB      22              0.0000000000
      1588        22  CHL1      C11           -14.2342612579      -27.0726786249       12.5626200000  MEMB      22              0.0000000000
      1589        22  CHL1      H11A          -14.4914936170      -28.0827067184       12.1779300000  MEMB      22              0.0000000000
      1590        22  CHL1      H11B          -13.3748678066      -27.0268752846       13.2652200000  MEMB      22              0.0000000000
      1591        22  CHL1      C9            -15.4959324258      -26.3903595769       13.2634800000  MEMB      22              0.0000000000
      1592        22  CHL1      H9            -15.0385299398      -25.5614238212       13.8448300000  MEMB      22              0.0000000000
      1593        22  CHL1      C10           -16.0801002546      -27.2632219633       14.4724500000  MEMB      22              0.0000000000
      1594        22  CHL1      C19           -16.4514965045      -28.6911906518       14.0279700000  MEMB      22              0.0000000000
      1595        22  CHL1      H19A          -17.4022598977      -28.7068256344       13.4534100000  MEMB      22              0.0000000000
      1596        22  CHL1      H19B          -15.7406039189      -29.2963997483       13.4257400000  MEMB      22              0.0000000000
      1597        22  CHL1      H19C          -16.6289466806      -29.2483833918       14.9726200000  MEMB      22              0.0000000000
      1598        22  CHL1      C1            -14.9427723385      -27.2651211525       15.5953100000  MEMB      22              0.0000000000
      1599        22  CHL1      H1A           -14.0747598261      -27.8391366356       15.2062500000  MEMB      22              0.0000000000
      1600        22  CHL1      H1B           -14.5301555716      -26.2640148202       15.8440200000  MEMB      22              0.0000000000
      1601        22  CHL1      C2            -15.3921908396      -27.9411830135       16.8294000000  MEMB      22              0.0000000000
      1602        22  CHL1      H2A           -14.5774900543      -27.6289147306       17.5172000000  MEMB      22              0.0000000000
      1603        22  CHL1      H2B           -15.5816998305      -29.0293023408       16.7093600000  MEMB      22              0.0000000000
      1604        22  CHL1      C20           -14.0304758187      -25.5128736067        7.9016500000  MEMB      22              0.0000000000
      1605        22  CHL1      H20           -14.8343301839      -26.1202689402        7.4334500000  MEMB      22              0.0000000000
      1606        22  CHL1      C21           -12.7064521375      -26.3194045966        8.1134900000  MEMB      22              0.0000000000
      1607        22  CHL1      H21A          -11.9863048162      -25.5769060533        8.5189500000  MEMB      22              0.0000000000
      1608        22  CHL1      H21B          -12.3414243545      -26.6600740309        7.1210000000  MEMB      22              0.0000000000
      1609        22  CHL1      H21C          -12.7929256006      -27.2832265281        8.6592700000  MEMB      22              0.0000000000
      1610        22  CHL1      C22           -13.8519688501      -24.3904010088        6.9423200000  MEMB      22              0.0000000000
      1611        22  CHL1      H22A          -14.8102121172      -23.8897834099        6.6864500000  MEMB      22              0.0000000000
      1612        22  CHL1      H22B          -13.1211789676      -23.6412208195        7.3151300000  MEMB      22              0.0000000000
      1613        22  CHL1      C23           -13.3213106430      -24.8120412101        5.5818100000  MEMB      22              0.0000000000
      1614        22  CHL1      H23A          -13.4283927273      -23.9360046481        4.9069700000  MEMB      22              0.0000000000
      1615        22  CHL1      H23B          -12.2589578398      -25.1340352188        5.5365700000  MEMB      22              0.0000000000
      1616        22  CHL1      C24           -14.0333290302      -25.8770060389        4.7958600000  MEMB      22              0.0000000000
      1617        22  CHL1      H24A          -13.9325221051      -26.8332297183        5.3524600000  MEMB      22              0.0000000000
      1618        22  CHL1      H24B          -15.0695999274      -25.4846223507        4.7153200000  MEMB      22              0.0000000000
      1619        22  CHL1      C25           -13.5157239934      -26.1444851013        3.3121800000  MEMB      22              0.0000000000
      1620        22  CHL1      H25           -14.1695372447      -26.9414925471        2.8979000000  MEMB      22              0.0000000000
      1621        22  CHL1      C26           -13.5616841759      -24.9268644424        2.3155300000  MEMB      22              0.0000000000
      1622        22  CHL1      H26A          -13.4488841838      -25.3769843662        1.3060800000  MEMB      22              0.0000000000
      1623        22  CHL1      H26B          -14.5099819036      -24.3557524044        2.4098100000  MEMB      22              0.0000000000
      1624        22  CHL1      H26C          -12.6623071902      -24.2769286965        2.3703800000  MEMB      22              0.0000000000
      1625        22  CHL1      C27           -12.1539860893      -26.8652699929        3.3216500000  MEMB      22              0.0000000000
      1626        22  CHL1      H27A          -11.4088597202      -26.2036578865        3.8129600000  MEMB      22              0.0000000000
      1627        22  CHL1      H27B          -12.1865605598      -27.8630668489        3.8091600000  MEMB      22              0.0000000000
      1628        22  CHL1      H27C          -11.7918445517      -26.9670306709        2.2762700000  MEMB      22              0.0000000000
      1629        23  CHL1      C3            -16.9225273439      -35.9285574757       17.3097050000  MEMB      23              0.0000000000
      1630        23  CHL1      H3            -16.3346868422      -36.8388303062       17.0643950000  MEMB      23              0.0000000000
      1631        23  CHL1      O3            -17.0992654561      -35.7129289243       18.6902950000  MEMB      23              0.0000000000
      1632        23  CHL1      H3'           -17.5791827785      -36.4818667899       19.0065450000  MEMB      23              0.0000000000
      1633        23  CHL1      C4            -16.2811750518      -34.5889337235       16.8924950000  MEMB      23              0.0000000000
      1634        23  CHL1      H4A           -16.9733322109      -33.7807272004       17.2119550000  MEMB      23              0.0000000000
      1635        23  CHL1      H4B           -15.3207227330      -34.3862188223       17.4128250000  MEMB      23              0.0000000000
      1636        23  CHL1      C5            -16.0985734106      -34.5317037521       15.4190350000  MEMB      23              0.0000000000
      1637        23  CHL1      C6            -14.9403399671      -34.2599790204       14.7257950000  MEMB      23              0.0000000000
      1638        23  CHL1      H6            -13.9906232253      -34.1298646384       15.2653350000  MEMB      23              0.0000000000
      1639        23  CHL1      C7            -14.7885949811      -34.0806563078       13.2300650000  MEMB      23              0.0000000000
      1640        23  CHL1      H7A           -14.0298027974      -33.2939251441       13.0310750000  MEMB      23              0.0000000000
      1641        23  CHL1      H7B           -14.5510405061      -35.0651928142       12.7733550000  MEMB      23              0.0000000000
      1642        23  CHL1      C8            -16.1538253248      -33.6895027948       12.5773350000  MEMB      23              0.0000000000
      1643        23  CHL1      H8            -16.3723695913      -32.6802512856       12.9871850000  MEMB      23              0.0000000000
      1644        23  CHL1      C14           -16.1219534502      -33.6398584909       11.0332950000  MEMB      23              0.0000000000
      1645        23  CHL1      H14           -15.8519182680      -34.6706781363       10.7189650000  MEMB      23              0.0000000000
      1646        23  CHL1      C15           -15.0549472456      -32.7743863382       10.3687150000  MEMB      23              0.0000000000
      1647        23  CHL1      H15A          -15.0154019050      -31.7586898396       10.8171850000  MEMB      23              0.0000000000
      1648        23  CHL1      H15B          -14.0605371276      -33.2515880369       10.5019250000  MEMB      23              0.0000000000
      1649        23  CHL1      C16           -15.6291151330      -32.7336390111        8.9576650000  MEMB      23              0.0000000000
      1650        23  CHL1      H16A          -15.6126377823      -31.6679874182        8.6439050000  MEMB      23              0.0000000000
      1651        23  CHL1      H16B          -14.9619963367      -33.2536256937        8.2373350000  MEMB      23              0.0000000000
      1652        23  CHL1      C17           -17.0645121114      -33.3187426856        8.8394450000  MEMB      23              0.0000000000
      1653        23  CHL1      H17           -17.0098705381      -34.3997269606        8.5888550000  MEMB      23              0.0000000000
      1654        23  CHL1      C13           -17.4960710166      -33.4666638452       10.3420450000  MEMB      23              0.0000000000
      1655        23  CHL1      C18           -18.1220931533      -32.1492665616       10.7864150000  MEMB      23              0.0000000000
      1656        23  CHL1      H18A          -18.0868904963      -32.1357445706       11.8967750000  MEMB      23              0.0000000000
      1657        23  CHL1      H18B          -17.5173432918      -31.2879835564       10.4303550000  MEMB      23              0.0000000000
      1658        23  CHL1      H18C          -19.1855840629      -32.0964381951       10.4693650000  MEMB      23              0.0000000000
      1659        23  CHL1      C12           -18.4306057896      -34.6831688048       10.6521050000  MEMB      23              0.0000000000
      1660        23  CHL1      H12A          -19.4512914642      -34.6226548251       10.2175250000  MEMB      23              0.0000000000
      1661        23  CHL1      H12B          -17.9329053199      -35.5924893550       10.2524150000  MEMB      23              0.0000000000
      1662        23  CHL1      C11           -18.6107430459      -34.8097826188       12.1603150000  MEMB      23              0.0000000000
      1663        23  CHL1      H11A          -19.2957944069      -33.9595449092       12.3655250000  MEMB      23              0.0000000000
      1664        23  CHL1      H11B          -19.1095139749      -35.7495568392       12.4802750000  MEMB      23              0.0000000000
      1665        23  CHL1      C9            -17.2646447768      -34.6995404909       13.0167250000  MEMB      23              0.0000000000
      1666        23  CHL1      H9            -16.8083043053      -35.6878123409       12.7944850000  MEMB      23              0.0000000000
      1667        23  CHL1      C10           -17.4027721477      -34.6756775953       14.5645450000  MEMB      23              0.0000000000
      1668        23  CHL1      C19           -18.3580090626      -33.4155015145       14.8296750000  MEMB      23              0.0000000000
      1669        23  CHL1      H19A          -19.2953258233      -33.3940610541       14.2336050000  MEMB      23              0.0000000000
      1670        23  CHL1      H19B          -18.5219766405      -33.3846810829       15.9280750000  MEMB      23              0.0000000000
      1671        23  CHL1      H19C          -17.7595410853      -32.5006124898       14.6318650000  MEMB      23              0.0000000000
      1672        23  CHL1      C1            -18.0123523717      -36.0163521483       15.0651250000  MEMB      23              0.0000000000
      1673        23  CHL1      H1A           -18.9553211714      -36.1366852483       14.4901050000  MEMB      23              0.0000000000
      1674        23  CHL1      H1B           -17.3636378753      -36.8582312234       14.7415050000  MEMB      23              0.0000000000
      1675        23  CHL1      C2            -18.2839340873      -36.1730766144       16.5722150000  MEMB      23              0.0000000000
      1676        23  CHL1      H2A           -18.6301572920      -37.2174528722       16.7261950000  MEMB      23              0.0000000000
      1677        23  CHL1      H2B           -19.0575698259      -35.4216331680       16.8389750000  MEMB      23              0.0000000000
      1678        23  CHL1      C20           -17.8780098076      -32.6943043211        7.6150950000  MEMB      23              0.0000000000
      1679        23  CHL1      H20           -18.1492969480      -31.6746057189        7.9628350000  MEMB      23              0.0000000000
      1680        23  CHL1      C21           -19.2240884306      -33.2881130915        7.4261050000  MEMB      23              0.0000000000
      1681        23  CHL1      H21A          -19.1722217010      -34.3361775419        7.0611550000  MEMB      23              0.0000000000
      1682        23  CHL1      H21B          -19.7424278159      -32.6416112807        6.6860550000  MEMB      23              0.0000000000
      1683        23  CHL1      H21C          -19.7338926259      -33.2573560368        8.4127550000  MEMB      23              0.0000000000
      1684        23  CHL1      C22           -17.1455447339      -32.6349154445        6.2913850000  MEMB      23              0.0000000000
      1685        23  CHL1      H22A          -16.0970813967      -32.3327880898        6.5005550000  MEMB      23              0.0000000000
      1686        23  CHL1      H22B          -17.1306336783      -33.6710844859        5.8908150000  MEMB      23              0.0000000000
      1687        23  CHL1      C23           -17.5928605997      -31.6559102548        5.2063850000  MEMB      23              0.0000000000
      1688        23  CHL1      H23A          -17.4401870184      -32.1257361038        4.2112550000  MEMB      23              0.0000000000
      1689        23  CHL1      H23B          -18.6608738116      -31.3939408120        5.3646350000  MEMB      23              0.0000000000
      1690        23  CHL1      C24           -16.7201381967      -30.2944884218        5.2997750000  MEMB      23              0.0000000000
      1691        23  CHL1      H24A          -16.9250746473      -29.8989967843        6.3175750000  MEMB      23              0.0000000000
      1692        23  CHL1      H24B          -15.6501499664      -30.5868109831        5.2364950000  MEMB      23              0.0000000000
      1693        23  CHL1      C25           -16.9837990783      -29.1813289878        4.2049150000  MEMB      23              0.0000000000
      1694        23  CHL1      H25           -18.0826226383      -29.2184468597        4.0451350000  MEMB      23              0.0000000000
      1695        23  CHL1      C26           -16.6245569362      -27.7792622164        4.6949550000  MEMB      23              0.0000000000
      1696        23  CHL1      H26A          -16.9214611237      -27.0763578915        3.8874350000  MEMB      23              0.0000000000
      1697        23  CHL1      H26B          -17.1705665735      -27.5481800061        5.6345250000  MEMB      23              0.0000000000
      1698        23  CHL1      H26C          -15.5289941999      -27.6371089355        4.8126450000  MEMB      23              0.0000000000
      1699        23  CHL1      C27           -16.2873279722      -29.6591859053        2.8863750000  MEMB      23              0.0000000000
      1700        23  CHL1      H27A          -16.8650652447      -30.4150706081        2.3126450000  MEMB      23              0.0000000000
      1701        23  CHL1      H27B          -16.3093113214      -28.7795926870        2.2080250000  MEMB      23              0.0000000000
      1702        23  CHL1      H27C          -15.2963954976      -30.1180049791        3.0909850000  MEMB      23              0.0000000000
      1703        24  CHL1      C3            -52.9886995624        4.0635303322       17.3561200000  MEMB      24              0.0000000000
      1704        24  CHL1      H3            -53.0343050632        2.9550288625       17.4151000000  MEMB      24              0.0000000000
      1705        24  CHL1      O3            -53.2758536376        4.5815907878       18.6438800000  MEMB      24              0.0000000000
      1706        24  CHL1      H3'           -52.8421053770        4.0061547301       19.2781700000  MEMB      24              0.0000000000
      1707        24  CHL1      C4            -51.5489483799        4.4877680316       16.9665300000  MEMB      24              0.0000000000
      1708        24  CHL1      H4A           -51.4677659871        5.5830692301       17.1339700000  MEMB      24              0.0000000000
      1709        24  CHL1      H4B           -50.9182336086        4.0171074178       17.7507500000  MEMB      24              0.0000000000
      1710        24  CHL1      C5            -51.1618290342        4.1938985180       15.5540300000  MEMB      24              0.0000000000
      1711        24  CHL1      C6            -50.0708775037        3.5561463713       15.2698800000  MEMB      24              0.0000000000
      1712        24  CHL1      H6            -49.3946714138        3.2510099879       16.0820500000  MEMB      24              0.0000000000
      1713        24  CHL1      C7            -49.5359306736        3.2325592287       13.9667800000  MEMB      24              0.0000000000
      1714        24  CHL1      H7A           -48.4662615436        3.5315116231       13.9943300000  MEMB      24              0.0000000000
      1715        24  CHL1      H7B           -49.7220969408        2.1653362448       13.7204100000  MEMB      24              0.0000000000
      1716        24  CHL1      C8            -50.2877426498        3.9983755843       12.8756400000  MEMB      24              0.0000000000
      1717        24  CHL1      H8            -50.0226402455        5.0771406665       12.8579600000  MEMB      24              0.0000000000
      1718        24  CHL1      C14           -49.9425962970        3.3158906423       11.5719600000  MEMB      24              0.0000000000
      1719        24  CHL1      H14           -50.4724238630        2.3397042654       11.5975000000  MEMB      24              0.0000000000
      1720        24  CHL1      C15           -48.4603272567        2.8965494004       11.2624200000  MEMB      24              0.0000000000
      1721        24  CHL1      H15A          -47.8910717161        3.7456162818       11.6975600000  MEMB      24              0.0000000000
      1722        24  CHL1      H15B          -48.2174188610        1.9250739739       11.7436300000  MEMB      24              0.0000000000
      1723        24  CHL1      C16           -48.3486809867        2.9687476510        9.7677600000  MEMB      24              0.0000000000
      1724        24  CHL1      H16A          -47.8616134748        3.8875494623        9.3767500000  MEMB      24              0.0000000000
      1725        24  CHL1      H16B          -47.8237527968        2.0739765541        9.3700600000  MEMB      24              0.0000000000
      1726        24  CHL1      C17           -49.8188624240        3.0686424205        9.2406300000  MEMB      24              0.0000000000
      1727        24  CHL1      H17           -50.2136047347        2.0301263493        9.2390300000  MEMB      24              0.0000000000
      1728        24  CHL1      C13           -50.6052616205        3.9600561355       10.3056900000  MEMB      24              0.0000000000
      1729        24  CHL1      C18           -50.2972873726        5.4367077070       10.0354600000  MEMB      24              0.0000000000
      1730        24  CHL1      H18A          -49.1935455861        5.5617597812       10.0145000000  MEMB      24              0.0000000000
      1731        24  CHL1      H18B          -50.7511683234        5.8304008053        9.1009500000  MEMB      24              0.0000000000
      1732        24  CHL1      H18C          -50.7284837869        6.0703117334       10.8397900000  MEMB      24              0.0000000000
      1733        24  CHL1      C12           -52.0903341350        3.7274577924       10.5417300000  MEMB      24              0.0000000000
      1734        24  CHL1      H12A          -52.6357798390        4.3378173544        9.7905500000  MEMB      24              0.0000000000
      1735        24  CHL1      H12B          -52.2816979069        2.6596940269       10.3017600000  MEMB      24              0.0000000000
      1736        24  CHL1      C11           -52.6203789903        4.3877194151       11.8615200000  MEMB      24              0.0000000000
      1737        24  CHL1      H11A          -52.6857411662        5.4824808150       11.6839300000  MEMB      24              0.0000000000
      1738        24  CHL1      H11B          -53.6913282504        4.1441668029       12.0291000000  MEMB      24              0.0000000000
      1739        24  CHL1      C9            -51.8498541558        3.9208554134       13.1102200000  MEMB      24              0.0000000000
      1740        24  CHL1      H9            -52.0800330339        2.8363035352       13.0388800000  MEMB      24              0.0000000000
      1741        24  CHL1      C10           -52.2059857214        4.6333846378       14.4805000000  MEMB      24              0.0000000000
      1742        24  CHL1      C19           -52.3434013794        6.1243512969       14.2200900000  MEMB      24              0.0000000000
      1743        24  CHL1      H19A          -51.5788608488        6.5237437482       13.5198900000  MEMB      24              0.0000000000
      1744        24  CHL1      H19B          -53.2963275787        6.3562123947       13.6980900000  MEMB      24              0.0000000000
      1745        24  CHL1      H19C          -52.3363597702        6.7646197632       15.1280200000  MEMB      24              0.0000000000
      1746        24  CHL1      C1            -53.5472226124        4.0094103069       14.9248100000  MEMB      24              0.0000000000
      1747        24  CHL1      H1A           -54.3798233199        4.1914337032       14.2120900000  MEMB      24              0.0000000000
      1748        24  CHL1      H1B           -53.6525897391        2.9034988517       14.9376000000  MEMB      24              0.0000000000
      1749        24  CHL1      C2            -53.9754329688        4.5454817051       16.3168500000  MEMB      24              0.0000000000
      1750        24  CHL1      H2A           -55.0193486337        4.2391879802       16.5421000000  MEMB      24              0.0000000000
      1751        24  CHL1      H2B           -53.8961349850        5.6526015839       16.2686300000  MEMB      24              0.0000000000
      1752        24  CHL1      C20           -49.8478566100        3.3403031414        7.6745700000  MEMB      24              0.0000000000
      1753        24  CHL1      H20           -49.5915846525        4.4069244841        7.4985900000  MEMB      24              0.0000000000
      1754        24  CHL1      C21           -51.2488614540        3.1384278967        7.1831200000  MEMB      24              0.0000000000
      1755        24  CHL1      H21A          -51.9377215758        3.8891813135        7.6260100000  MEMB      24              0.0000000000
      1756        24  CHL1      H21B          -51.6134092346        2.0996899010        7.3329300000  MEMB      24              0.0000000000
      1757        24  CHL1      H21C          -51.4032461010        3.3207575676        6.0981100000  MEMB      24              0.0000000000
      1758        24  CHL1      C22           -48.7557685933        2.6109818792        6.8900200000  MEMB      24              0.0000000000
      1759        24  CHL1      H22A          -47.7385879078        2.9223271465        7.2105400000  MEMB      24              0.0000000000
      1760        24  CHL1      H22B          -48.7683169662        1.5325768876        7.1568500000  MEMB      24              0.0000000000
      1761        24  CHL1      C23           -48.9153292005        2.7869107740        5.3854800000  MEMB      24              0.0000000000
      1762        24  CHL1      H23A          -49.8721617709        2.2889916404        5.1192700000  MEMB      24              0.0000000000
      1763        24  CHL1      H23B          -49.0255254497        3.8498042391        5.0814300000  MEMB      24              0.0000000000
      1764        24  CHL1      C24           -47.7496407710        2.1837003255        4.5987100000  MEMB      24              0.0000000000
      1765        24  CHL1      H24A          -46.7480920664        2.3632862919        5.0447700000  MEMB      24              0.0000000000
      1766        24  CHL1      H24B          -47.7296568882        1.0775461421        4.7004400000  MEMB      24              0.0000000000
      1767        24  CHL1      C25           -47.6609445255        2.6314027760        3.0892000000  MEMB      24              0.0000000000
      1768        24  CHL1      H25           -47.6303526727        3.7412454653        3.1296700000  MEMB      24              0.0000000000
      1769        24  CHL1      C26           -46.3941717379        2.0732720289        2.3962600000  MEMB      24              0.0000000000
      1770        24  CHL1      H26A          -46.4384890295        2.2500271786        1.3003000000  MEMB      24              0.0000000000
      1771        24  CHL1      H26B          -45.5436093278        2.7003456299        2.7392400000  MEMB      24              0.0000000000
      1772        24  CHL1      H26C          -46.1823430479        0.9828286424        2.4155900000  MEMB      24              0.0000000000
      1773        24  CHL1      C27           -48.8818435875        2.2067367555        2.2837900000  MEMB      24              0.0000000000
      1774        24  CHL1      H27A          -49.7810787681        2.7472126026        2.6492600000  MEMB      24              0.0000000000
      1775        24  CHL1      H27B          -48.8037508611        2.3856718138        1.1900800000  MEMB      24              0.0000000000
      1776        24  CHL1      H27C          -49.2072307238        1.1860934342        2.5782900000  MEMB      24              0.0000000000
      1777        25  CHL1      C3             -9.6637172347      -32.0431845368       17.2827000000  MEMB      25              0.0000000000
      1778        25  CHL1      H3             -8.5811188687      -31.9947002390       17.0378800000  MEMB      25              0.0000000000
      1779        25  CHL1      O3             -9.7463393253      -31.8703814632       18.7173000000  MEMB      25              0.0000000000
      1780        25  CHL1      H3'            -9.6638909151      -30.9367961466       18.9252000000  MEMB      25              0.0000000000
      1781        25  CHL1      C4            -10.3972490408      -30.8817413023       16.6718800000  MEMB      25              0.0000000000
      1782        25  CHL1      H4A           -11.4571802650      -30.9639327919       16.9945300000  MEMB      25              0.0000000000
      1783        25  CHL1      H4B           -10.0378675746      -29.9030946693       17.0558100000  MEMB      25              0.0000000000
      1784        25  CHL1      C5            -10.3237038275      -30.8607368241       15.1307100000  MEMB      25              0.0000000000
      1785        25  CHL1      C6             -9.7414325802      -29.8018703118       14.5471100000  MEMB      25              0.0000000000
      1786        25  CHL1      H6             -9.3507638738      -29.0254072430       15.2212800000  MEMB      25              0.0000000000
      1787        25  CHL1      C7             -9.4771892124      -29.8500060014       13.0723500000  MEMB      25              0.0000000000
      1788        25  CHL1      H7A            -9.6898901293      -28.8662242499       12.6019700000  MEMB      25              0.0000000000
      1789        25  CHL1      H7B            -8.4218049770      -30.1613539078       12.9189700000  MEMB      25              0.0000000000
      1790        25  CHL1      C8            -10.3584694380      -30.8659614130       12.2819500000  MEMB      25              0.0000000000
      1791        25  CHL1      H8            -11.3295657900      -30.3263083327       12.2893700000  MEMB      25              0.0000000000
      1792        25  CHL1      C14            -9.8348515658      -31.1380354468       10.9012400000  MEMB      25              0.0000000000
      1793        25  CHL1      H14            -9.0230621338      -31.8855481870       11.0298600000  MEMB      25              0.0000000000
      1794        25  CHL1      C15            -9.2543039404      -30.0260288354       10.1034100000  MEMB      25              0.0000000000
      1795        25  CHL1      H15A           -9.9194358881      -29.1370464705       10.0626900000  MEMB      25              0.0000000000
      1796        25  CHL1      H15B           -8.2533389957      -29.7517698129       10.4998300000  MEMB      25              0.0000000000
      1797        25  CHL1      C16            -9.1602134247      -30.5903857006        8.6836400000  MEMB      25              0.0000000000
      1798        25  CHL1      H16A           -9.4348718594      -29.8186526853        7.9331100000  MEMB      25              0.0000000000
      1799        25  CHL1      H16B           -8.1451570575      -30.8828324154        8.3394600000  MEMB      25              0.0000000000
      1800        25  CHL1      C17           -10.0324756526      -31.9091456058        8.7592400000  MEMB      25              0.0000000000
      1801        25  CHL1      H17            -9.3391912580      -32.7536878432        8.9603200000  MEMB      25              0.0000000000
      1802        25  CHL1      C13           -10.7875203746      -31.9067994907       10.0451500000  MEMB      25              0.0000000000
      1803        25  CHL1      C18           -12.1499439872      -31.1993307368        9.8328800000  MEMB      25              0.0000000000
      1804        25  CHL1      H18A          -12.0194738144      -30.1830401742        9.4034100000  MEMB      25              0.0000000000
      1805        25  CHL1      H18B          -12.7488014870      -31.7881772658        9.1055800000  MEMB      25              0.0000000000
      1806        25  CHL1      H18C          -12.8554846376      -31.1163384433       10.6870700000  MEMB      25              0.0000000000
      1807        25  CHL1      C12           -10.9335339057      -33.3605810985       10.5842300000  MEMB      25              0.0000000000
      1808        25  CHL1      H12A          -11.6794518393      -33.9559724949       10.0155300000  MEMB      25              0.0000000000
      1809        25  CHL1      H12B           -9.9692555064      -33.9112362523       10.6199600000  MEMB      25              0.0000000000
      1810        25  CHL1      C11           -11.4013381211      -33.2139713764       12.0684900000  MEMB      25              0.0000000000
      1811        25  CHL1      H11A          -12.4197348221      -32.7728683067       12.0172300000  MEMB      25              0.0000000000
      1812        25  CHL1      H11B          -11.5160874024      -34.2580323131       12.4305500000  MEMB      25              0.0000000000
      1813        25  CHL1      C9            -10.5340787419      -32.1990175971       12.9658700000  MEMB      25              0.0000000000
      1814        25  CHL1      H9             -9.5447649881      -32.7008429155       12.9047400000  MEMB      25              0.0000000000
      1815        25  CHL1      C10           -10.9328358721      -32.0896679302       14.4377600000  MEMB      25              0.0000000000
      1816        25  CHL1      C19           -12.4688796684      -32.0931929014       14.5493600000  MEMB      25              0.0000000000
      1817        25  CHL1      H19A          -13.0056783171      -33.0211349405       14.2576200000  MEMB      25              0.0000000000
      1818        25  CHL1      H19B          -12.5733024691      -31.9836158181       15.6500000000  MEMB      25              0.0000000000
      1819        25  CHL1      H19C          -12.8202741534      -31.2058854656       13.9805900000  MEMB      25              0.0000000000
      1820        25  CHL1      C1            -10.2933602767      -33.3146873081       15.1835300000  MEMB      25              0.0000000000
      1821        25  CHL1      H1A           -10.8289999890      -34.2132180252       14.8092700000  MEMB      25              0.0000000000
      1822        25  CHL1      H1B            -9.2522001947      -33.4323761545       14.8141400000  MEMB      25              0.0000000000
      1823        25  CHL1      C2            -10.2332668464      -33.2770863383       16.7411200000  MEMB      25              0.0000000000
      1824        25  CHL1      H2A            -9.6150550799      -34.1382945860       17.0734800000  MEMB      25              0.0000000000
      1825        25  CHL1      H2B           -11.2618689630      -33.4381386061       17.1289000000  MEMB      25              0.0000000000
      1826        25  CHL1      C20           -10.7338948153      -32.3207801775        7.3636800000  MEMB      25              0.0000000000
      1827        25  CHL1      H20           -11.4511370768      -33.1558268796        7.5139500000  MEMB      25              0.0000000000
      1828        25  CHL1      C21            -9.6176001066      -32.7679964940        6.3956400000  MEMB      25              0.0000000000
      1829        25  CHL1      H21A           -9.0188389935      -33.4563526660        7.0296500000  MEMB      25              0.0000000000
      1830        25  CHL1      H21B           -9.0374804754      -31.9070316673        5.9999900000  MEMB      25              0.0000000000
      1831        25  CHL1      H21C           -9.9783135946      -33.4290138207        5.5787900000  MEMB      25              0.0000000000
      1832        25  CHL1      C22           -11.5207535565      -31.1351864024        6.6686300000  MEMB      25              0.0000000000
      1833        25  CHL1      H22A          -12.3704942850      -30.6993546072        7.2363600000  MEMB      25              0.0000000000
      1834        25  CHL1      H22B          -10.7754593718      -30.3186309227        6.5586400000  MEMB      25              0.0000000000
      1835        25  CHL1      C23           -12.0276166599      -31.3128847446        5.2290400000  MEMB      25              0.0000000000
      1836        25  CHL1      H23A          -12.1862468929      -30.2836238811        4.8420200000  MEMB      25              0.0000000000
      1837        25  CHL1      H23B          -11.4616358052      -31.9295066426        4.4984500000  MEMB      25              0.0000000000
      1838        25  CHL1      C24           -13.4853222325      -31.8255257862        5.1102300000  MEMB      25              0.0000000000
      1839        25  CHL1      H24A          -13.7202522329      -32.6123477149        5.8585800000  MEMB      25              0.0000000000
      1840        25  CHL1      H24B          -14.2823622856      -31.0836384372        5.3308700000  MEMB      25              0.0000000000
      1841        25  CHL1      C25           -13.8134127152      -32.4953066526        3.7698700000  MEMB      25              0.0000000000
      1842        25  CHL1      H25           -13.0022832336      -33.2317012785        3.5851200000  MEMB      25              0.0000000000
      1843        25  CHL1      C26           -15.2727443605      -33.1012934091        3.7716400000  MEMB      25              0.0000000000
      1844        25  CHL1      H26A          -15.3922914999      -33.7071699629        2.8480900000  MEMB      25              0.0000000000
      1845        25  CHL1      H26B          -15.5383509010      -33.6316710765        4.7110400000  MEMB      25              0.0000000000
      1846        25  CHL1      H26C          -15.9409874443      -32.2145652030        3.8101600000  MEMB      25              0.0000000000
      1847        25  CHL1      C27           -13.7395224748      -31.4525181024        2.6541800000  MEMB      25              0.0000000000
      1848        25  CHL1      H27A          -13.8576699630      -31.9457053938        1.6656800000  MEMB      25              0.0000000000
      1849        25  CHL1      H27B          -14.6484207665      -30.8176238326        2.7258400000  MEMB      25              0.0000000000
      1850        25  CHL1      H27C          -12.8096980215      -30.8469188266        2.7088100000  MEMB      25              0.0000000000
      1851        26  CHL1      C3             11.7817326374       -7.4485658985       17.3145150000  MEMB      26              0.0000000000
      1852        26  CHL1      H3             11.5633603398       -6.3596120957       17.3430650000  MEMB      26              0.0000000000
      1853        26  CHL1      O3             11.5925245626       -7.9183766815       18.6854850000  MEMB      26              0.0000000000
      1854        26  CHL1      H3'            12.1771795178       -7.3761809494       19.2200950000  MEMB      26              0.0000000000
      1855        26  CHL1      C4             10.6711037938       -8.1108939459       16.4913950000  MEMB      26              0.0000000000
      1856        26  CHL1      H4A            10.5859836028       -9.1968015224       16.7102050000  MEMB      26              0.0000000000
      1857        26  CHL1      H4B             9.7153367326       -7.6446133697       16.8129750000  MEMB      26              0.0000000000
      1858        26  CHL1      C5             10.9178719656       -7.9074899295       14.9920350000  MEMB      26              0.0000000000
      1859        26  CHL1      C6              9.9310788764       -7.5556586857       14.2160450000  MEMB      26              0.0000000000
      1860        26  CHL1      H6              8.9321971950       -7.4241793957       14.6575850000  MEMB      26              0.0000000000
      1861        26  CHL1      C7             10.0722991759       -7.4413167760       12.7568250000  MEMB      26              0.0000000000
      1862        26  CHL1      H7A             9.1915594874       -7.8667436475       12.2299250000  MEMB      26              0.0000000000
      1863        26  CHL1      H7B             9.9537421006       -6.3546623443       12.5582150000  MEMB      26              0.0000000000
      1864        26  CHL1      C8             11.3368998937       -8.0032810462       12.1023550000  MEMB      26              0.0000000000
      1865        26  CHL1      H8             11.2667317314       -9.1093639799       12.1796950000  MEMB      26              0.0000000000
      1866        26  CHL1      C14            11.5159562017       -7.5868606689       10.7054750000  MEMB      26              0.0000000000
      1867        26  CHL1      H14            11.6868710918       -6.4899845875       10.6610650000  MEMB      26              0.0000000000
      1868        26  CHL1      C15            10.4059468804       -7.8323856762        9.7806250000  MEMB      26              0.0000000000
      1869        26  CHL1      H15A            9.9657014348       -8.8515774523        9.8223050000  MEMB      26              0.0000000000
      1870        26  CHL1      H15B            9.4892003132       -7.2459638246       10.0042850000  MEMB      26              0.0000000000
      1871        26  CHL1      C16            11.0206811999       -7.5769650839        8.4194750000  MEMB      26              0.0000000000
      1872        26  CHL1      H16A           10.7645421619       -8.4568133698        7.7913250000  MEMB      26              0.0000000000
      1873        26  CHL1      H16B           10.6209172035       -6.6882864508        7.8858450000  MEMB      26              0.0000000000
      1874        26  CHL1      C17            12.5841564391       -7.5731771442        8.6347850000  MEMB      26              0.0000000000
      1875        26  CHL1      H17            12.9480646874       -6.5260903558        8.5606250000  MEMB      26              0.0000000000
      1876        26  CHL1      C13            12.7879835908       -8.0733704187       10.1046650000  MEMB      26              0.0000000000
      1877        26  CHL1      C18            12.7667740941       -9.6111666670       10.2275950000  MEMB      26              0.0000000000
      1878        26  CHL1      H18A           13.5693118935       -9.9547288666        9.5404250000  MEMB      26              0.0000000000
      1879        26  CHL1      H18B           13.1663408857       -9.9914633920       11.1919750000  MEMB      26              0.0000000000
      1880        26  CHL1      H18C           11.8326957614      -10.1515007551        9.9632650000  MEMB      26              0.0000000000
      1881        26  CHL1      C12            14.0293374521       -7.4814307947       10.7909550000  MEMB      26              0.0000000000
      1882        26  CHL1      H12A           14.9465626612       -7.9075187827       10.3310950000  MEMB      26              0.0000000000
      1883        26  CHL1      H12B           13.9150852132       -6.3824519894       10.6747250000  MEMB      26              0.0000000000
      1884        26  CHL1      C11            13.9484365071       -7.8952296419       12.2944350000  MEMB      26              0.0000000000
      1885        26  CHL1      H11A           14.1948372763       -8.9716831896       12.4163250000  MEMB      26              0.0000000000
      1886        26  CHL1      H11B           14.7360386755       -7.4014360588       12.9028450000  MEMB      26              0.0000000000
      1887        26  CHL1      C9             12.5245609670       -7.5580781406       12.9533150000  MEMB      26              0.0000000000
      1888        26  CHL1      H9             12.4299966918       -6.4555274185       13.0520950000  MEMB      26              0.0000000000
      1889        26  CHL1      C10            12.3848708025       -8.0795238650       14.4433850000  MEMB      26              0.0000000000
      1890        26  CHL1      C19            12.5639007271       -9.6396389809       14.5103450000  MEMB      26              0.0000000000
      1891        26  CHL1      H19A           13.5531946209       -9.9274861331       14.0946750000  MEMB      26              0.0000000000
      1892        26  CHL1      H19B           12.4113837039      -10.1634589413       15.4781550000  MEMB      26              0.0000000000
      1893        26  CHL1      H19C           11.8199380688      -10.1483853448       13.8607150000  MEMB      26              0.0000000000
      1894        26  CHL1      C1             13.3769982516       -7.3291243533       15.2769650000  MEMB      26              0.0000000000
      1895        26  CHL1      H1A            14.3989464250       -7.6144176016       14.9474850000  MEMB      26              0.0000000000
      1896        26  CHL1      H1B            13.2661637109       -6.2251582302       15.2194650000  MEMB      26              0.0000000000
      1897        26  CHL1      C2             13.2626373172       -7.7260176125       16.8216750000  MEMB      26              0.0000000000
      1898        26  CHL1      H2A            13.9732783202       -7.1702106516       17.4700450000  MEMB      26              0.0000000000
      1899        26  CHL1      H2B            13.4387273815       -8.8225618864       16.8515450000  MEMB      26              0.0000000000
      1900        26  CHL1      C20            13.3589851352       -8.1864938049        7.4518050000  MEMB      26              0.0000000000
      1901        26  CHL1      H20            12.8582686549       -9.1050914039        7.0779250000  MEMB      26              0.0000000000
      1902        26  CHL1      C21            14.8040209456       -8.5004446628        7.6368250000  MEMB      26              0.0000000000
      1903        26  CHL1      H21A           15.0053225842       -9.3311981291        8.3465050000  MEMB      26              0.0000000000
      1904        26  CHL1      H21B           15.3040723714       -7.5785971095        8.0035350000  MEMB      26              0.0000000000
      1905        26  CHL1      H21C           15.2362019695       -8.8965511680        6.6930850000  MEMB      26              0.0000000000
      1906        26  CHL1      C22            13.2137587989       -7.3042950225        6.1076750000  MEMB      26              0.0000000000
      1907        26  CHL1      H22A           12.1871354752       -6.8900112293        6.0141750000  MEMB      26              0.0000000000
      1908        26  CHL1      H22B           13.8533511049       -6.4108201542        6.2718250000  MEMB      26              0.0000000000
      1909        26  CHL1      C23            13.6902502260       -8.0059868970        4.7822950000  MEMB      26              0.0000000000
      1910        26  CHL1      H23A           14.7594886675       -8.2010055827        5.0125850000  MEMB      26              0.0000000000
      1911        26  CHL1      H23B           13.2093726524       -9.0057082989        4.7221350000  MEMB      26              0.0000000000
      1912        26  CHL1      C24            13.4848737355       -7.1239438160        3.6362050000  MEMB      26              0.0000000000
      1913        26  CHL1      H24A           12.4946549710       -6.7073720181        3.3528950000  MEMB      26              0.0000000000
      1914        26  CHL1      H24B           14.0099854552       -6.1553834029        3.7792750000  MEMB      26              0.0000000000
      1915        26  CHL1      C25            13.9874236894       -7.7077659588        2.3368350000  MEMB      26              0.0000000000
      1916        26  CHL1      H25            13.9880682426       -6.8740188823        1.6025550000  MEMB      26              0.0000000000
      1917        26  CHL1      C26            15.3510313681       -8.3737508894        2.4781450000  MEMB      26              0.0000000000
      1918        26  CHL1      H26A           15.9604624609       -7.7841644662        3.1959950000  MEMB      26              0.0000000000
      1919        26  CHL1      H26B           15.2599169796       -9.4240518009        2.8286750000  MEMB      26              0.0000000000
      1920        26  CHL1      H26C           15.8836190235       -8.3498167850        1.5034150000  MEMB      26              0.0000000000
      1921        26  CHL1      C27            12.9529509408       -8.7530773213        1.8114350000  MEMB      26              0.0000000000
      1922        26  CHL1      H27A           13.3198981995       -9.0866517158        0.8172550000  MEMB      26              0.0000000000
      1923        26  CHL1      H27B           12.8794337613       -9.6489059355        2.4644350000  MEMB      26              0.0000000000
      1924        26  CHL1      H27C           11.9752701378       -8.2332458468        1.7206750000  MEMB      26              0.0000000000
      1925        27  CHL1      C3             -2.6225866224       48.8238297364       17.3472700000  MEMB      27              0.0000000000
      1926        27  CHL1      H3             -3.1385458908       49.8066297303       17.3942400000  MEMB      27              0.0000000000
      1927        27  CHL1      O3             -2.3049733976       48.2874754636       18.6527300000  MEMB      27              0.0000000000
      1928        27  CHL1      H3'            -1.4421349913       47.8688278028       18.6098100000  MEMB      27              0.0000000000
      1929        27  CHL1      C4             -3.5663416442       47.7523557519       16.7422400000  MEMB      27              0.0000000000
      1930        27  CHL1      H4A            -3.0409011541       46.7760953783       16.8139700000  MEMB      27              0.0000000000
      1931        27  CHL1      H4B            -4.4628223310       47.6645525173       17.3925700000  MEMB      27              0.0000000000
      1932        27  CHL1      C5             -4.0117368349       48.0582051379       15.3017100000  MEMB      27              0.0000000000
      1933        27  CHL1      C6             -5.2896164518       48.1840724462       14.8115800000  MEMB      27              0.0000000000
      1934        27  CHL1      H6             -6.1037592120       48.1712818628       15.5511700000  MEMB      27              0.0000000000
      1935        27  CHL1      C7             -5.6993555654       48.2526877128       13.3586300000  MEMB      27              0.0000000000
      1936        27  CHL1      H7A            -6.5052311870       47.5248510061       13.1238000000  MEMB      27              0.0000000000
      1937        27  CHL1      H7B            -6.1766885998       49.2464720616       13.2213000000  MEMB      27              0.0000000000
      1938        27  CHL1      C8             -4.5389334731       48.0102215159       12.3365300000  MEMB      27              0.0000000000
      1939        27  CHL1      H8             -4.4517199559       46.9160164980       12.1649500000  MEMB      27              0.0000000000
      1940        27  CHL1      C14            -4.8143930427       48.6875985849       11.0378200000  MEMB      27              0.0000000000
      1941        27  CHL1      H14            -4.8690493237       49.7972353128       11.0448900000  MEMB      27              0.0000000000
      1942        27  CHL1      C15            -6.2036238131       48.3031898761       10.3395300000  MEMB      27              0.0000000000
      1943        27  CHL1      H15A           -6.5023404606       47.3014362602       10.7157800000  MEMB      27              0.0000000000
      1944        27  CHL1      H15B           -6.9626491517       49.0672802486       10.6122400000  MEMB      27              0.0000000000
      1945        27  CHL1      C16            -5.8491713760       48.2965596512        8.8049400000  MEMB      27              0.0000000000
      1946        27  CHL1      H16A           -6.0485176249       47.2532480136        8.4792500000  MEMB      27              0.0000000000
      1947        27  CHL1      H16B           -6.6294731079       48.9464598631        8.3542800000  MEMB      27              0.0000000000
      1948        27  CHL1      C17            -4.4500322360       48.8256898118        8.6453600000  MEMB      27              0.0000000000
      1949        27  CHL1      H17            -4.6088386942       49.9252250549        8.6571700000  MEMB      27              0.0000000000
      1950        27  CHL1      C13            -3.7586511809       48.4041567337        9.9707600000  MEMB      27              0.0000000000
      1951        27  CHL1      C18            -3.5080887346       46.9699652026        9.8043800000  MEMB      27              0.0000000000
      1952        27  CHL1      H18A           -3.0240136742       46.5837509799       10.7267900000  MEMB      27              0.0000000000
      1953        27  CHL1      H18B           -4.3618190100       46.2648903655        9.7130500000  MEMB      27              0.0000000000
      1954        27  CHL1      H18C           -2.6634499809       46.6983007598        9.1357200000  MEMB      27              0.0000000000
      1955        27  CHL1      C12            -2.5205160410       49.0799236678       10.4504500000  MEMB      27              0.0000000000
      1956        27  CHL1      H12A           -1.6770163831       48.9302131119        9.7430500000  MEMB      27              0.0000000000
      1957        27  CHL1      H12B           -2.7919040757       50.1562750561       10.4043400000  MEMB      27              0.0000000000
      1958        27  CHL1      C11            -2.0820911121       48.7299318413       11.9147600000  MEMB      27              0.0000000000
      1959        27  CHL1      H11A           -1.5236403172       47.7736682219       12.0041800000  MEMB      27              0.0000000000
      1960        27  CHL1      H11B           -1.2961680688       49.4483474534       12.2318000000  MEMB      27              0.0000000000
      1961        27  CHL1      C9             -3.2470742666       48.6806886793       12.9616300000  MEMB      27              0.0000000000
      1962        27  CHL1      H9             -3.6266129242       49.7132666147       13.1167000000  MEMB      27              0.0000000000
      1963        27  CHL1      C10            -2.8269889308       48.1914763165       14.3631600000  MEMB      27              0.0000000000
      1964        27  CHL1      C19            -2.2563627013       46.7411539559       14.2251400000  MEMB      27              0.0000000000
      1965        27  CHL1      H19A           -2.0890527062       46.0477541674       15.0769200000  MEMB      27              0.0000000000
      1966        27  CHL1      H19B           -2.9659799274       46.1255497748       13.6320300000  MEMB      27              0.0000000000
      1967        27  CHL1      H19C           -1.2481387387       46.8209899578       13.7653200000  MEMB      27              0.0000000000
      1968        27  CHL1      C1             -1.7573355459       49.1607924748       14.9716800000  MEMB      27              0.0000000000
      1969        27  CHL1      H1A            -0.8244370104       48.9551990597       14.4044400000  MEMB      27              0.0000000000
      1970        27  CHL1      H1B            -2.0706802888       50.2241557013       14.8982800000  MEMB      27              0.0000000000
      1971        27  CHL1      C2             -1.3638259791       48.8460610603       16.4343300000  MEMB      27              0.0000000000
      1972        27  CHL1      H2A            -0.6386756899       49.6261979860       16.7503300000  MEMB      27              0.0000000000
      1973        27  CHL1      H2B            -0.8536330404       47.8595630612       16.4052500000  MEMB      27              0.0000000000
      1974        27  CHL1      C20            -3.8327945395       48.2881945775        7.2761800000  MEMB      27              0.0000000000
      1975        27  CHL1      H20            -3.8033158643       47.1789165499        7.3305800000  MEMB      27              0.0000000000
      1976        27  CHL1      C21            -2.3607159992       48.7286606570        7.0786000000  MEMB      27              0.0000000000
      1977        27  CHL1      H21A           -2.2248663880       49.7415844911        7.5143000000  MEMB      27              0.0000000000
      1978        27  CHL1      H21B           -2.0283538415       48.7000425865        6.0188600000  MEMB      27              0.0000000000
      1979        27  CHL1      H21C           -1.6746854174       47.9906767199        7.5466400000  MEMB      27              0.0000000000
      1980        27  CHL1      C22            -4.7334436068       48.4754688007        6.0008200000  MEMB      27              0.0000000000
      1981        27  CHL1      H22A           -5.7629536933       48.2358179342        6.3428600000  MEMB      27              0.0000000000
      1982        27  CHL1      H22B           -4.6555258016       49.5646059122        5.7958100000  MEMB      27              0.0000000000
      1983        27  CHL1      C23            -4.2283964230       47.6377028063        4.8088100000  MEMB      27              0.0000000000
      1984        27  CHL1      H23A           -3.1374392084       47.6671845232        4.6007800000  MEMB      27              0.0000000000
      1985        27  CHL1      H23B           -4.5398379707       46.6078008438        5.0856000000  MEMB      27              0.0000000000
      1986        27  CHL1      C24            -4.9037686837       48.0865007502        3.4403100000  MEMB      27              0.0000000000
      1987        27  CHL1      H24A           -5.9884994234       47.9908644453        3.6605900000  MEMB      27              0.0000000000
      1988        27  CHL1      H24B           -4.6473815782       49.1504170685        3.2488200000  MEMB      27              0.0000000000
      1989        27  CHL1      C25            -4.5577044684       47.3044804349        2.2358500000  MEMB      27              0.0000000000
      1990        27  CHL1      H25            -3.4467250801       47.3099298286        2.2352000000  MEMB      27              0.0000000000
      1991        27  CHL1      C26            -4.9612226107       45.8525743278        2.3621300000  MEMB      27              0.0000000000
      1992        27  CHL1      H26A           -5.9275436407       45.7537671180        2.9013700000  MEMB      27              0.0000000000
      1993        27  CHL1      H26B           -5.2067384956       45.4854913432        1.3426700000  MEMB      27              0.0000000000
      1994        27  CHL1      H26C           -4.1552444265       45.2148661787        2.7840900000  MEMB      27              0.0000000000
      1995        27  CHL1      C27            -5.1566019947       47.8341278252        0.8839800000  MEMB      27              0.0000000000
      1996        27  CHL1      H27A           -5.0079627130       47.1685915156        0.0068900000  MEMB      27              0.0000000000
      1997        27  CHL1      H27B           -6.2137991456       48.1491060511        1.0160400000  MEMB      27              0.0000000000
      1998        27  CHL1      H27C           -4.6165470752       48.7586405700        0.5874200000  MEMB      27              0.0000000000
      1999        28  CHL1      C3            -23.2780832857      -13.4361216655       17.3760000000  MEMB      28              0.0000000000
      2000        28  CHL1      H3            -24.3287645189      -13.0758033707       17.3994800000  MEMB      28              0.0000000000
      2001        28  CHL1      O3            -22.6368767143      -13.2865505345       18.6240000000  MEMB      28              0.0000000000
      2002        28  CHL1      H3'           -21.9758879963      -13.9780281559       18.5430300000  MEMB      28              0.0000000000
      2003        28  CHL1      C4            -23.1118579359      -14.8503102788       16.7926000000  MEMB      28              0.0000000000
      2004        28  CHL1      H4A           -22.0548503022      -15.1573981456       16.9434600000  MEMB      28              0.0000000000
      2005        28  CHL1      H4B           -23.6730084124      -15.4787291669       17.5168200000  MEMB      28              0.0000000000
      2006        28  CHL1      C5            -23.5626280788      -14.8629739404       15.3330500000  MEMB      28              0.0000000000
      2007        28  CHL1      C6            -24.3956485510      -15.7757033461       14.7728100000  MEMB      28              0.0000000000
      2008        28  CHL1      H6            -24.7272065097      -16.6220459215       15.3923000000  MEMB      28              0.0000000000
      2009        28  CHL1      C7            -25.0419217523      -15.7323349980       13.4521800000  MEMB      28              0.0000000000
      2010        28  CHL1      H7A           -25.2331112083      -16.7489068413       13.0467900000  MEMB      28              0.0000000000
      2011        28  CHL1      H7B           -26.0402043983      -15.2463775320       13.4921800000  MEMB      28              0.0000000000
      2012        28  CHL1      C8            -24.0892255771      -15.0497510770       12.4379300000  MEMB      28              0.0000000000
      2013        28  CHL1      H8            -23.2169570634      -15.7111518428       12.2481600000  MEMB      28              0.0000000000
      2014        28  CHL1      C14           -24.7273144858      -14.9510231610       11.0530400000  MEMB      28              0.0000000000
      2015        28  CHL1      H14           -25.4349513372      -14.1037374634       11.1782300000  MEMB      28              0.0000000000
      2016        28  CHL1      C15           -25.4723000387      -16.0833187269       10.4355100000  MEMB      28              0.0000000000
      2017        28  CHL1      H15A          -24.9539173874      -17.0431112681       10.6462300000  MEMB      28              0.0000000000
      2018        28  CHL1      H15B          -26.5181398875      -16.0382919993       10.8076900000  MEMB      28              0.0000000000
      2019        28  CHL1      C16           -25.4742989743      -15.7858519455        9.0000700000  MEMB      28              0.0000000000
      2020        28  CHL1      H16A          -24.9221113742      -16.6354257794        8.5444000000  MEMB      28              0.0000000000
      2021        28  CHL1      H16B          -26.5440334401      -15.7638351565        8.7008800000  MEMB      28              0.0000000000
      2022        28  CHL1      C17           -24.7431175154      -14.4708505324        8.7594600000  MEMB      28              0.0000000000
      2023        28  CHL1      H17           -25.3563955886      -13.5535317349        8.8888100000  MEMB      28              0.0000000000
      2024        28  CHL1      C13           -23.7910193617      -14.3444099233        9.9613100000  MEMB      28              0.0000000000
      2025        28  CHL1      C18           -22.5701140609      -15.1721642617        9.7581400000  MEMB      28              0.0000000000
      2026        28  CHL1      H18A          -21.9456204401      -15.2386609576       10.6746000000  MEMB      28              0.0000000000
      2027        28  CHL1      H18B          -22.8647747531      -16.2108968871        9.4963500000  MEMB      28              0.0000000000
      2028        28  CHL1      H18C          -21.9339982008      -14.7583173636        8.9467200000  MEMB      28              0.0000000000
      2029        28  CHL1      C12           -23.4429630573      -12.8991362364       10.5738300000  MEMB      28              0.0000000000
      2030        28  CHL1      H12A          -22.7824631079      -12.3725730307        9.8521700000  MEMB      28              0.0000000000
      2031        28  CHL1      H12B          -24.3805623419      -12.3221568711       10.7232500000  MEMB      28              0.0000000000
      2032        28  CHL1      C11           -22.7606698277      -12.9990882894       11.9469200000  MEMB      28              0.0000000000
      2033        28  CHL1      H11A          -21.7495393606      -13.4318791541       11.7900000000  MEMB      28              0.0000000000
      2034        28  CHL1      H11B          -22.5341196622      -11.9854343771       12.3412800000  MEMB      28              0.0000000000
      2035        28  CHL1      C9            -23.6353101552      -13.7054975319       12.9223700000  MEMB      28              0.0000000000
      2036        28  CHL1      H9            -24.5207419555      -13.0613752610       13.1106400000  MEMB      28              0.0000000000
      2037        28  CHL1      C10           -23.0093727713      -13.8096871734       14.3753600000  MEMB      28              0.0000000000
      2038        28  CHL1      C19           -21.5086979190      -14.0814775131       14.2348400000  MEMB      28              0.0000000000
      2039        28  CHL1      H19A          -20.9974074788      -13.1947473903       13.8028600000  MEMB      28              0.0000000000
      2040        28  CHL1      H19B          -21.1701047015      -14.1653536191       15.2896600000  MEMB      28              0.0000000000
      2041        28  CHL1      H19C          -21.4824674248      -15.0553581795       13.7008100000  MEMB      28              0.0000000000
      2042        28  CHL1      C1            -23.1674032021      -12.4274568048       15.0223100000  MEMB      28              0.0000000000
      2043        28  CHL1      H1A           -22.5286964445      -11.7506407705       14.4154400000  MEMB      28              0.0000000000
      2044        28  CHL1      H1B           -24.2223265662      -12.1173733379       14.8632600000  MEMB      28              0.0000000000
      2045        28  CHL1      C2            -22.6610191259      -12.2636595303       16.4698500000  MEMB      28              0.0000000000
      2046        28  CHL1      H2A           -22.8543886181      -11.2382564518       16.8512700000  MEMB      28              0.0000000000
      2047        28  CHL1      H2B           -21.5711632025      -12.4787871565       16.4858500000  MEMB      28              0.0000000000
      2048        28  CHL1      C20           -24.2371961001      -14.4651284595        7.2695500000  MEMB      28              0.0000000000
      2049        28  CHL1      H20           -23.8308898976      -15.4991667780        7.2706000000  MEMB      28              0.0000000000
      2050        28  CHL1      C21           -23.2016566650      -13.3650191131        6.8661800000  MEMB      28              0.0000000000
      2051        28  CHL1      H21A          -23.5994772570      -12.4433769054        7.3422400000  MEMB      28              0.0000000000
      2052        28  CHL1      H21B          -23.1597469699      -13.1936713777        5.7692700000  MEMB      28              0.0000000000
      2053        28  CHL1      H21C          -22.1594004407      -13.5534393331        7.2016300000  MEMB      28              0.0000000000
      2054        28  CHL1      C22           -25.3779982921      -14.5023523197        6.1783200000  MEMB      28              0.0000000000
      2055        28  CHL1      H22A          -26.3161379129      -14.9495671690        6.5710300000  MEMB      28              0.0000000000
      2056        28  CHL1      H22B          -25.6083134757      -13.4276420977        6.0161900000  MEMB      28              0.0000000000
      2057        28  CHL1      C23           -24.9420807764      -15.0881446799        4.7707600000  MEMB      28              0.0000000000
      2058        28  CHL1      H23A          -23.9838672369      -14.7053423533        4.3589500000  MEMB      28              0.0000000000
      2059        28  CHL1      H23B          -24.8057385178      -16.1624078405        5.0191400000  MEMB      28              0.0000000000
      2060        28  CHL1      C24           -26.1053716630      -14.8771529309        3.7860700000  MEMB      28              0.0000000000
      2061        28  CHL1      H24A          -27.0893095769      -14.8767650804        4.3020000000  MEMB      28              0.0000000000
      2062        28  CHL1      H24B          -25.9015962390      -13.8984212357        3.3014200000  MEMB      28              0.0000000000
      2063        28  CHL1      C25           -26.0766742218      -15.8891102026        2.6378900000  MEMB      28              0.0000000000
      2064        28  CHL1      H25           -26.0068849877      -16.9002361141        3.0929500000  MEMB      28              0.0000000000
      2065        28  CHL1      C26           -27.3572620247      -15.7456627147        1.7836000000  MEMB      28              0.0000000000
      2066        28  CHL1      H26A          -28.2673441369      -15.8227105030        2.4161700000  MEMB      28              0.0000000000
      2067        28  CHL1      H26B          -27.4544520491      -14.7187953710        1.3707900000  MEMB      28              0.0000000000
      2068        28  CHL1      H26C          -27.3053039142      -16.6049014736        1.0812200000  MEMB      28              0.0000000000
      2069        28  CHL1      C27           -24.7840789859      -15.6976986846        1.8404500000  MEMB      28              0.0000000000
      2070        28  CHL1      H27A          -23.8427287269      -15.8470213820        2.4113200000  MEMB      28              0.0000000000
      2071        28  CHL1      H27B          -24.7311291186      -16.2413941536        0.8730300000  MEMB      28              0.0000000000
      2072        28  CHL1      H27C          -24.8989956323      -14.6156139037        1.6163800000  MEMB      28              0.0000000000
      2073        29  CHL1      C3            -46.0225056571       50.3130769157       17.3096600000  MEMB      29              0.0000000000
      2074        29  CHL1      H3            -46.0782275211       49.3230141585       16.8086700000  MEMB      29              0.0000000000
      2075        29  CHL1      O3            -45.9389597429       50.1757068843       18.6903400000  MEMB      29              0.0000000000
      2076        29  CHL1      H3'           -46.7501490291       49.8208924271       19.0614000000  MEMB      29              0.0000000000
      2077        29  CHL1      C4            -44.6812597973       50.8141461103       16.8435400000  MEMB      29              0.0000000000
      2078        29  CHL1      H4A           -44.3638390439       51.6782808606       17.4655000000  MEMB      29              0.0000000000
      2079        29  CHL1      H4B           -43.9189791455       50.0070402905       16.8863000000  MEMB      29              0.0000000000
      2080        29  CHL1      C5            -44.6069067665       51.3853052031       15.4461200000  MEMB      29              0.0000000000
      2081        29  CHL1      C6            -43.5167559895       51.2130852228       14.6730500000  MEMB      29              0.0000000000
      2082        29  CHL1      H6            -42.6652815196       50.6849381523       15.1269700000  MEMB      29              0.0000000000
      2083        29  CHL1      C7            -43.3638259991       51.5351877228       13.2482000000  MEMB      29              0.0000000000
      2084        29  CHL1      H7A           -42.3246742182       51.8974800817       13.0958400000  MEMB      29              0.0000000000
      2085        29  CHL1      H7B           -43.4988734800       50.5618010747       12.7299300000  MEMB      29              0.0000000000
      2086        29  CHL1      C8            -44.5118101105       52.5697535836       12.8424900000  MEMB      29              0.0000000000
      2087        29  CHL1      H8            -44.1881833464       53.5495353362       13.2543300000  MEMB      29              0.0000000000
      2088        29  CHL1      C14           -44.5832723201       52.5161140172       11.3958800000  MEMB      29              0.0000000000
      2089        29  CHL1      H14           -45.0982519444       51.5377022984       11.2871000000  MEMB      29              0.0000000000
      2090        29  CHL1      C15           -43.2746387143       52.5512506899       10.5267200000  MEMB      29              0.0000000000
      2091        29  CHL1      H15A          -42.6420076718       53.3368577348       10.9924700000  MEMB      29              0.0000000000
      2092        29  CHL1      H15B          -42.5632638495       51.6979423925       10.5155400000  MEMB      29              0.0000000000
      2093        29  CHL1      C16           -43.8241653195       53.1119955273        9.1854700000  MEMB      29              0.0000000000
      2094        29  CHL1      H16A          -43.4343446443       54.1394159188        9.0218400000  MEMB      29              0.0000000000
      2095        29  CHL1      H16B          -43.4158333872       52.5385264859        8.3259700000  MEMB      29              0.0000000000
      2096        29  CHL1      C17           -45.4250215857       53.1223679663        9.2625400000  MEMB      29              0.0000000000
      2097        29  CHL1      H17           -45.7775523330       52.1207851690        8.9356100000  MEMB      29              0.0000000000
      2098        29  CHL1      C13           -45.6802617836       53.4490059090       10.7245900000  MEMB      29              0.0000000000
      2099        29  CHL1      C18           -45.3897714013       54.9218796736       11.0845800000  MEMB      29              0.0000000000
      2100        29  CHL1      H18A          -45.9783679658       55.6850405696       10.5319000000  MEMB      29              0.0000000000
      2101        29  CHL1      H18B          -45.5939232884       55.0683138635       12.1668000000  MEMB      29              0.0000000000
      2102        29  CHL1      H18C          -44.3045917284       55.1219080558       10.9553500000  MEMB      29              0.0000000000
      2103        29  CHL1      C12           -47.0832227397       53.0419832996       11.3301000000  MEMB      29              0.0000000000
      2104        29  CHL1      H12A          -47.8905872048       53.7059586935       10.9537700000  MEMB      29              0.0000000000
      2105        29  CHL1      H12B          -47.2476787040       51.9969827170       10.9906300000  MEMB      29              0.0000000000
      2106        29  CHL1      C11           -47.1447413189       53.1291386816       12.8751200000  MEMB      29              0.0000000000
      2107        29  CHL1      H11A          -47.1562326248       54.2050112959       13.1520600000  MEMB      29              0.0000000000
      2108        29  CHL1      H11B          -48.0982904087       52.6578638002       13.1960000000  MEMB      29              0.0000000000
      2109        29  CHL1      C9            -45.9601669420       52.2301459554       13.4222600000  MEMB      29              0.0000000000
      2110        29  CHL1      H9            -46.1765025870       51.2213102554       13.0102500000  MEMB      29              0.0000000000
      2111        29  CHL1      C10           -45.9145763094       52.0481643291       14.9072400000  MEMB      29              0.0000000000
      2112        29  CHL1      C19           -46.0340920396       53.4356074773       15.5767500000  MEMB      29              0.0000000000
      2113        29  CHL1      H19A          -45.1724765411       54.1029734100       15.3609900000  MEMB      29              0.0000000000
      2114        29  CHL1      H19B          -46.9600993317       53.9884303581       15.3098800000  MEMB      29              0.0000000000
      2115        29  CHL1      H19C          -46.1030874108       53.3165803126       16.6792000000  MEMB      29              0.0000000000
      2116        29  CHL1      C1            -47.1823387783       51.2812960701       15.3769200000  MEMB      29              0.0000000000
      2117        29  CHL1      H1A           -48.0603386598       51.8434132029       14.9929100000  MEMB      29              0.0000000000
      2118        29  CHL1      H1B           -47.2404559682       50.2804555110       14.8981000000  MEMB      29              0.0000000000
      2119        29  CHL1      C2            -47.3213581865       51.0654970197       16.8855300000  MEMB      29              0.0000000000
      2120        29  CHL1      H2A           -48.2418888841       50.4712555242       17.0694400000  MEMB      29              0.0000000000
      2121        29  CHL1      H2B           -47.4166158205       52.0196611021       17.4466300000  MEMB      29              0.0000000000
      2122        29  CHL1      C20           -46.0758554522       54.0897364397        8.2143100000  MEMB      29              0.0000000000
      2123        29  CHL1      H20           -45.7886295959       55.1379104433        8.4448600000  MEMB      29              0.0000000000
      2124        29  CHL1      C21           -47.6039650526       54.1186270916        8.2952200000  MEMB      29              0.0000000000
      2125        29  CHL1      H21A          -48.0347476506       54.9046256616        7.6387600000  MEMB      29              0.0000000000
      2126        29  CHL1      H21B          -47.8067330750       54.6004259340        9.2755700000  MEMB      29              0.0000000000
      2127        29  CHL1      H21C          -48.1605093606       53.1618698681        8.1994200000  MEMB      29              0.0000000000
      2128        29  CHL1      C22           -45.5447395279       53.7619419664        6.7886600000  MEMB      29              0.0000000000
      2129        29  CHL1      H22A          -44.4557341809       53.5437737837        6.8166200000  MEMB      29              0.0000000000
      2130        29  CHL1      H22B          -46.1243284239       52.8910909235        6.4144600000  MEMB      29              0.0000000000
      2131        29  CHL1      C23           -45.7948687380       54.9211059371        5.7415400000  MEMB      29              0.0000000000
      2132        29  CHL1      H23A          -46.8625260266       55.2222439359        5.6802800000  MEMB      29              0.0000000000
      2133        29  CHL1      H23B          -45.3346199999       55.8073834897        6.2283700000  MEMB      29              0.0000000000
      2134        29  CHL1      C24           -45.3925780104       54.5538884553        4.2610800000  MEMB      29              0.0000000000
      2135        29  CHL1      H24A          -44.3374372702       54.2078173716        4.2961300000  MEMB      29              0.0000000000
      2136        29  CHL1      H24B          -45.9629768128       53.6331460827        4.0137100000  MEMB      29              0.0000000000
      2137        29  CHL1      C25           -45.6207769666       55.6946268876        3.2285900000  MEMB      29              0.0000000000
      2138        29  CHL1      H25           -46.7108487689       55.9065246737        3.2624500000  MEMB      29              0.0000000000
      2139        29  CHL1      C26           -44.8311961986       56.9199154283        3.6677800000  MEMB      29              0.0000000000
      2140        29  CHL1      H26A          -45.0144173407       57.7741920713        2.9815200000  MEMB      29              0.0000000000
      2141        29  CHL1      H26B          -45.2164219744       57.2629485056        4.6517700000  MEMB      29              0.0000000000
      2142        29  CHL1      H26C          -43.7543779158       56.6489484733        3.7047200000  MEMB      29              0.0000000000
      2143        29  CHL1      C27           -45.3003266061       55.2186076888        1.8379200000  MEMB      29              0.0000000000
      2144        29  CHL1      H27A          -46.2294252154       54.7010257616        1.5166700000  MEMB      29              0.0000000000
      2145        29  CHL1      H27B          -45.2125800750       56.0717242000        1.1316400000  MEMB      29              0.0000000000
      2146        29  CHL1      H27C          -44.3703253088       54.6270782567        1.6982500000  MEMB      29              0.0000000000
      2147        30  CHL1      C3             19.7111112299       44.1569760647       17.4001150000  MEMB      30              0.0000000000
      2148        30  CHL1      H3             19.9700943318       45.2156293170       17.6157250000  MEMB      30              0.0000000000
      2149        30  CHL1      O3             19.7217367701       43.4252803353       18.5998850000  MEMB      30              0.0000000000
      2150        30  CHL1      H3'            20.5125095418       43.7058943731       19.0663050000  MEMB      30              0.0000000000
      2151        30  CHL1      C4             18.2916584302       44.0867537760       16.8373650000  MEMB      30              0.0000000000
      2152        30  CHL1      H4A            18.0036688562       43.0145036610       16.7966050000  MEMB      30              0.0000000000
      2153        30  CHL1      H4B            17.5921196808       44.5689543771       17.5532250000  MEMB      30              0.0000000000
      2154        30  CHL1      C5             18.2874411072       44.6958782242       15.4256750000  MEMB      30              0.0000000000
      2155        30  CHL1      C6             17.4095069098       45.6620159628       15.0723050000  MEMB      30              0.0000000000
      2156        30  CHL1      H6             16.6736191012       45.9422986804       15.8403650000  MEMB      30              0.0000000000
      2157        30  CHL1      C7             17.2161565578       46.1468751885       13.6600750000  MEMB      30              0.0000000000
      2158        30  CHL1      H7A            16.1235290397       46.1419897203       13.4589350000  MEMB      30              0.0000000000
      2159        30  CHL1      H7B            17.4506461947       47.2222376710       13.5085950000  MEMB      30              0.0000000000
      2160        30  CHL1      C8             17.8273647485       45.2532999011       12.5304950000  MEMB      30              0.0000000000
      2161        30  CHL1      H8             17.2237312083       44.3336502618       12.3749150000  MEMB      30              0.0000000000
      2162        30  CHL1      C14            17.9183566818       46.0011606377       11.2362250000  MEMB      30              0.0000000000
      2163        30  CHL1      H14            18.7454117768       46.7422262706       11.2696950000  MEMB      30              0.0000000000
      2164        30  CHL1      C15            16.7412794141       46.7447498117       10.5471250000  MEMB      30              0.0000000000
      2165        30  CHL1      H15A           15.9343651394       46.0035414956       10.3632550000  MEMB      30              0.0000000000
      2166        30  CHL1      H15B           16.2952544998       47.5607530569       11.1550150000  MEMB      30              0.0000000000
      2167        30  CHL1      C16            17.2731072027       47.0349447536        9.1592250000  MEMB      30              0.0000000000
      2168        30  CHL1      H16A           16.5140924662       46.6235161811        8.4599850000  MEMB      30              0.0000000000
      2169        30  CHL1      H16B           17.4450861078       48.0572503863        8.7596750000  MEMB      30              0.0000000000
      2170        30  CHL1      C17            18.5524901364       46.1246661081        8.9314550000  MEMB      30              0.0000000000
      2171        30  CHL1      H17            19.5141797308       46.6739028080        9.0198750000  MEMB      30              0.0000000000
      2172        30  CHL1      C13            18.5277787599       45.1836092722       10.0968050000  MEMB      30              0.0000000000
      2173        30  CHL1      C18            17.6759483023       43.9518195507        9.7920150000  MEMB      30              0.0000000000
      2174        30  CHL1      H18A           16.7072931486       44.3311541855        9.4019650000  MEMB      30              0.0000000000
      2175        30  CHL1      H18B           18.1322490685       43.3095445728        9.0086950000  MEMB      30              0.0000000000
      2176        30  CHL1      H18C           17.5066649375       43.3154818371       10.6868550000  MEMB      30              0.0000000000
      2177        30  CHL1      C12            19.8994710567       44.7242529819       10.5259050000  MEMB      30              0.0000000000
      2178        30  CHL1      H12A           20.3615270834       44.0532546864        9.7705250000  MEMB      30              0.0000000000
      2179        30  CHL1      H12B           20.5149611493       45.6314771328       10.7059650000  MEMB      30              0.0000000000
      2180        30  CHL1      C11            19.9030913885       43.9070415461       11.8278050000  MEMB      30              0.0000000000
      2181        30  CHL1      H11A           19.3603999974       42.9460469317       11.7001250000  MEMB      30              0.0000000000
      2182        30  CHL1      H11B           20.9089030287       43.6363358831       12.2143150000  MEMB      30              0.0000000000
      2183        30  CHL1      C9             19.2430807205       44.7283901569       12.9223250000  MEMB      30              0.0000000000
      2184        30  CHL1      H9             19.8711128495       45.6418280846       12.9966650000  MEMB      30              0.0000000000
      2185        30  CHL1      C10            19.2538598761       44.0673141422       14.3541050000  MEMB      30              0.0000000000
      2186        30  CHL1      C19            18.7877703324       42.7114019436       14.1563850000  MEMB      30              0.0000000000
      2187        30  CHL1      H19A           19.4151882968       42.1586038463       13.4248850000  MEMB      30              0.0000000000
      2188        30  CHL1      H19B           18.9707117040       42.1044525459       15.0687850000  MEMB      30              0.0000000000
      2189        30  CHL1      H19C           17.7495693039       42.6578277763       13.7644750000  MEMB      30              0.0000000000
      2190        30  CHL1      C1             20.6750446082       43.9832899914       14.9888550000  MEMB      30              0.0000000000
      2191        30  CHL1      H1A            21.3923809767       43.4875450055       14.3003850000  MEMB      30              0.0000000000
      2192        30  CHL1      H1B            21.0087164801       45.0428332708       15.0074650000  MEMB      30              0.0000000000
      2193        30  CHL1      C2             20.7309935954       43.4301753407       16.3484350000  MEMB      30              0.0000000000
      2194        30  CHL1      H2A            21.7742624190       43.6190188850       16.6804550000  MEMB      30              0.0000000000
      2195        30  CHL1      H2B            20.5351985595       42.3377421947       16.3990950000  MEMB      30              0.0000000000
      2196        30  CHL1      C20            18.5206419412       45.6051127455        7.3839350000  MEMB      30              0.0000000000
      2197        30  CHL1      H20            17.5872639863       45.0028735772        7.3635050000  MEMB      30              0.0000000000
      2198        30  CHL1      C21            19.8213347344       44.8247209273        7.0513750000  MEMB      30              0.0000000000
      2199        30  CHL1      H21A           19.8661991185       44.4013042059        6.0252050000  MEMB      30              0.0000000000
      2200        30  CHL1      H21B           19.8694599245       43.9323685007        7.7114650000  MEMB      30              0.0000000000
      2201        30  CHL1      H21C           20.7334596898       45.4405605667        7.2033050000  MEMB      30              0.0000000000
      2202        30  CHL1      C22            18.3456597108       46.7656956453        6.3959450000  MEMB      30              0.0000000000
      2203        30  CHL1      H22A           17.4187209590       47.3271931078        6.6405450000  MEMB      30              0.0000000000
      2204        30  CHL1      H22B           19.2013219520       47.4568092484        6.5525150000  MEMB      30              0.0000000000
      2205        30  CHL1      C23            18.3310330362       46.4288054975        4.9061750000  MEMB      30              0.0000000000
      2206        30  CHL1      H23A           19.1884952257       45.7886550136        4.6073450000  MEMB      30              0.0000000000
      2207        30  CHL1      H23B           17.3622527811       45.9175472169        4.7206750000  MEMB      30              0.0000000000
      2208        30  CHL1      C24            18.4575637030       47.7194162350        4.0630350000  MEMB      30              0.0000000000
      2209        30  CHL1      H24A           17.5197837105       48.3009148075        4.1925150000  MEMB      30              0.0000000000
      2210        30  CHL1      H24B           19.3218427953       48.3691489575        4.3183550000  MEMB      30              0.0000000000
      2211        30  CHL1      C25            18.4404413534       47.4694330933        2.5496950000  MEMB      30              0.0000000000
      2212        30  CHL1      H25            19.1110820203       46.6089606876        2.3396150000  MEMB      30              0.0000000000
      2213        30  CHL1      C26            16.9919318953       47.2040542592        2.1976550000  MEMB      30              0.0000000000
      2214        30  CHL1      H26A           17.0006074746       46.9802532672        1.1094650000  MEMB      30              0.0000000000
      2215        30  CHL1      H26B           16.4133090404       46.4289075030        2.7441550000  MEMB      30              0.0000000000
      2216        30  CHL1      H26C           16.3458291123       48.0711722313        2.4525450000  MEMB      30              0.0000000000
      2217        30  CHL1      C27            18.8622667183       48.7562735395        1.7363550000  MEMB      30              0.0000000000
      2218        30  CHL1      H27A           18.5158457695       48.6799948989        0.6834950000  MEMB      30              0.0000000000
      2219        30  CHL1      H27B           18.2850884766       49.6043871433        2.1628350000  MEMB      30              0.0000000000
      2220        30  CHL1      H27C           19.9403359828       48.9532289464        1.9188050000  MEMB      30              0.0000000000
      2221        31  CHL1      C3             34.5357562608       34.3200045631       17.3888850000  MEMB      31              0.0000000000
      2222        31  CHL1      H3             35.0914285517       33.3692646610       17.5360250000  MEMB      31              0.0000000000
      2223        31  CHL1      O3             33.9860409392       34.6955550369       18.6111150000  MEMB      31              0.0000000000
      2224        31  CHL1      H3'            34.1837780579       33.9246782965       19.1480050000  MEMB      31              0.0000000000
      2225        31  CHL1      C4             35.3444387800       35.5015447981       16.8507350000  MEMB      31              0.0000000000
      2226        31  CHL1      H4A            34.7199524838       36.4203448446       16.8384250000  MEMB      31              0.0000000000
      2227        31  CHL1      H4B            36.0529653417       35.6428966127       17.6947350000  MEMB      31              0.0000000000
      2228        31  CHL1      C5             35.9859865032       35.1677643136       15.5811850000  MEMB      31              0.0000000000
      2229        31  CHL1      C6             37.2785150897       35.0806958501       15.4745850000  MEMB      31              0.0000000000
      2230        31  CHL1      H6             37.9736306393       35.3770830760       16.2739450000  MEMB      31              0.0000000000
      2231        31  CHL1      C7             38.0314631322       34.6677481182       14.2392250000  MEMB      31              0.0000000000
      2232        31  CHL1      H7A            38.7928246900       35.4203361890       13.9421350000  MEMB      31              0.0000000000
      2233        31  CHL1      H7B            38.4504752932       33.6466107438       14.3658050000  MEMB      31              0.0000000000
      2234        31  CHL1      C8             37.1292872410       34.5152916566       13.0381750000  MEMB      31              0.0000000000
      2235        31  CHL1      H8             37.0123335104       35.5235850652       12.5865250000  MEMB      31              0.0000000000
      2236        31  CHL1      C14            37.8621243988       33.6818099745       11.9974350000  MEMB      31              0.0000000000
      2237        31  CHL1      H14            37.9336701968       32.6323251718       12.3549250000  MEMB      31              0.0000000000
      2238        31  CHL1      C15            39.3506628978       34.0605223589       11.6278050000  MEMB      31              0.0000000000
      2239        31  CHL1      H15A           39.5411907700       35.1391463753       11.4418150000  MEMB      31              0.0000000000
      2240        31  CHL1      H15B           39.9596947967       33.7298467694       12.4961650000  MEMB      31              0.0000000000
      2241        31  CHL1      C16            39.6629715005       33.2820385458       10.4176250000  MEMB      31              0.0000000000
      2242        31  CHL1      H16A           40.0205002236       33.7950485774        9.4992950000  MEMB      31              0.0000000000
      2243        31  CHL1      H16B           40.5411886669       32.6281416801       10.6059850000  MEMB      31              0.0000000000
      2244        31  CHL1      C17            38.2779005414       32.6173143542        9.9831950000  MEMB      31              0.0000000000
      2245        31  CHL1      H17            38.2764488337       31.5613544641       10.3285250000  MEMB      31              0.0000000000
      2246        31  CHL1      C13            37.1916269079       33.5077051635       10.7278850000  MEMB      31              0.0000000000
      2247        31  CHL1      C18            37.1195739169       34.8557517467        9.8908250000  MEMB      31              0.0000000000
      2248        31  CHL1      H18A           36.4619460797       35.5863955728       10.4085150000  MEMB      31              0.0000000000
      2249        31  CHL1      H18B           38.0611505301       35.3629136404        9.5899150000  MEMB      31              0.0000000000
      2250        31  CHL1      H18C           36.6015280820       34.5150924680        8.9689250000  MEMB      31              0.0000000000
      2251        31  CHL1      C12            35.8049023350       32.9121366691       10.9479650000  MEMB      31              0.0000000000
      2252        31  CHL1      H12A           35.2373653733       32.7919251669       10.0004650000  MEMB      31              0.0000000000
      2253        31  CHL1      H12B           36.0572367250       31.9144698113       11.3666550000  MEMB      31              0.0000000000
      2254        31  CHL1      C11            35.0575088187       33.7334307581       11.9844650000  MEMB      31              0.0000000000
      2255        31  CHL1      H11A           34.7626597231       34.7220773771       11.5721850000  MEMB      31              0.0000000000
      2256        31  CHL1      H11B           34.1570146599       33.0971773095       12.1209050000  MEMB      31              0.0000000000
      2257        31  CHL1      C9             35.8191167460       33.9380188331       13.3194450000  MEMB      31              0.0000000000
      2258        31  CHL1      H9             35.9512522730       32.8995106258       13.6914050000  MEMB      31              0.0000000000
      2259        31  CHL1      C10            35.0357345756       34.7312861621       14.3807450000  MEMB      31              0.0000000000
      2260        31  CHL1      C19            34.2167542228       35.9474875098       13.8432750000  MEMB      31              0.0000000000
      2261        31  CHL1      H19A           33.4062722438       35.6394763331       13.1486050000  MEMB      31              0.0000000000
      2262        31  CHL1      H19B           33.8014751787       36.4665929685       14.7334350000  MEMB      31              0.0000000000
      2263        31  CHL1      H19C           34.8669795642       36.5743258633       13.1962850000  MEMB      31              0.0000000000
      2264        31  CHL1      C1             34.0609287729       33.6817775415       14.9805050000  MEMB      31              0.0000000000
      2265        31  CHL1      H1A            33.3148377671       33.3925371017       14.2097850000  MEMB      31              0.0000000000
      2266        31  CHL1      H1B            34.6073171025       32.7264753415       15.1327250000  MEMB      31              0.0000000000
      2267        31  CHL1      C2             33.4064881620       33.9848874661       16.3576150000  MEMB      31              0.0000000000
      2268        31  CHL1      H2A            32.7635774015       33.1606972030       16.7340350000  MEMB      31              0.0000000000
      2269        31  CHL1      H2B            32.8225000867       34.9242238049       16.2529650000  MEMB      31              0.0000000000
      2270        31  CHL1      C20            38.1731282975       32.4572196466        8.4398850000  MEMB      31              0.0000000000
      2271        31  CHL1      H20            38.3678974559       33.4008296060        7.8867350000  MEMB      31              0.0000000000
      2272        31  CHL1      C21            36.8877902189       31.8779123231        8.0089350000  MEMB      31              0.0000000000
      2273        31  CHL1      H21A           35.9631505187       32.4878979630        8.0942450000  MEMB      31              0.0000000000
      2274        31  CHL1      H21B           36.6132968380       30.9678895838        8.5841150000  MEMB      31              0.0000000000
      2275        31  CHL1      H21C           36.9080407300       31.5828036265        6.9380350000  MEMB      31              0.0000000000
      2276        31  CHL1      C22            39.3221260527       31.5323061629        7.9711750000  MEMB      31              0.0000000000
      2277        31  CHL1      H22A           40.1905153398       31.8857367966        8.5672550000  MEMB      31              0.0000000000
      2278        31  CHL1      H22B           39.1574270220       30.5034657517        8.3567750000  MEMB      31              0.0000000000
      2279        31  CHL1      C23            39.6211507315       31.4161379542        6.4555550000  MEMB      31              0.0000000000
      2280        31  CHL1      H23A           40.2946030480       30.5347571789        6.3926750000  MEMB      31              0.0000000000
      2281        31  CHL1      H23B           38.7027174067       31.1563935350        5.8869350000  MEMB      31              0.0000000000
      2282        31  CHL1      C24            40.2446605664       32.7562441083        5.8446650000  MEMB      31              0.0000000000
      2283        31  CHL1      H24A           39.4074845355       33.4537640103        5.6280250000  MEMB      31              0.0000000000
      2284        31  CHL1      H24B           41.0056117199       33.1623195257        6.5449350000  MEMB      31              0.0000000000
      2285        31  CHL1      C25            40.7649226490       32.6902745494        4.4102050000  MEMB      31              0.0000000000
      2286        31  CHL1      H25            39.8924667513       32.5486140355        3.7371050000  MEMB      31              0.0000000000
      2287        31  CHL1      C26            41.4468569141       34.0409410285        4.0750850000  MEMB      31              0.0000000000
      2288        31  CHL1      H26A           40.8552899214       34.9504777950        4.3140850000  MEMB      31              0.0000000000
      2289        31  CHL1      H26B           42.3131933659       34.0128528034        4.7700750000  MEMB      31              0.0000000000
      2290        31  CHL1      H26C           41.6410779392       34.0251386640        2.9813150000  MEMB      31              0.0000000000
      2291        31  CHL1      C27            41.8407887735       31.6502657591        4.1589150000  MEMB      31              0.0000000000
      2292        31  CHL1      H27A           42.7741117159       31.7411447589        4.7547150000  MEMB      31              0.0000000000
      2293        31  CHL1      H27B           41.4574649975       30.6075699371        4.1453550000  MEMB      31              0.0000000000
      2294        31  CHL1      H27C           42.3589631521       31.7779165204        3.1844850000  MEMB      31              0.0000000000
      2295        32  CHL1      C3             49.4957851591       -7.8954954051       17.2857850000  MEMB      32              0.0000000000
      2296        32  CHL1      H3             49.0557821726       -6.8907820956       17.1089550000  MEMB      32              0.0000000000
      2297        32  CHL1      O3             49.6265824409       -8.0912848349       18.7142150000  MEMB      32              0.0000000000
      2298        32  CHL1      H3'            50.2419587441       -7.4512088538       19.0791850000  MEMB      32              0.0000000000
      2299        32  CHL1      C4             48.6607943201       -8.9732774969       16.5992450000  MEMB      32              0.0000000000
      2300        32  CHL1      H4A            49.1489295614       -9.9457606489       16.8235550000  MEMB      32              0.0000000000
      2301        32  CHL1      H4B            47.6726195929       -8.9946353619       17.1065550000  MEMB      32              0.0000000000
      2302        32  CHL1      C5             48.4904298097       -8.8008545670       15.1026950000  MEMB      32              0.0000000000
      2303        32  CHL1      C6             47.3471153819       -8.5126336766       14.4986850000  MEMB      32              0.0000000000
      2304        32  CHL1      H6             46.4472911187       -8.5339928862       15.1310250000  MEMB      32              0.0000000000
      2305        32  CHL1      C7             47.1882248151       -8.4151382356       12.9757850000  MEMB      32              0.0000000000
      2306        32  CHL1      H7A            46.4812543291       -9.1689688161       12.5680450000  MEMB      32              0.0000000000
      2307        32  CHL1      H7B            46.7952502767       -7.4328731391       12.6366150000  MEMB      32              0.0000000000
      2308        32  CHL1      C8             48.4924805213       -8.7024471354       12.1983550000  MEMB      32              0.0000000000
      2309        32  CHL1      H8             48.5616895258       -9.8056841960       12.0870350000  MEMB      32              0.0000000000
      2310        32  CHL1      C14            48.5086311100       -8.0163696945       10.7552750000  MEMB      32              0.0000000000
      2311        32  CHL1      H14            48.3919525777       -6.9148468204       10.8408850000  MEMB      32              0.0000000000
      2312        32  CHL1      C15            47.3513982594       -8.3156862453        9.8359750000  MEMB      32              0.0000000000
      2313        32  CHL1      H15A           47.3027540751       -9.4234041961        9.7660450000  MEMB      32              0.0000000000
      2314        32  CHL1      H15B           46.3822782257       -7.9542451557       10.2415450000  MEMB      32              0.0000000000
      2315        32  CHL1      C16            47.7942304631       -7.7567973341        8.4956050000  MEMB      32              0.0000000000
      2316        32  CHL1      H16A           47.6013719096       -8.5438618405        7.7355650000  MEMB      32              0.0000000000
      2317        32  CHL1      H16B           47.3875203331       -6.7505047195        8.2583650000  MEMB      32              0.0000000000
      2318        32  CHL1      C17            49.3445718304       -7.4112423728        8.7801150000  MEMB      32              0.0000000000
      2319        32  CHL1      H17            49.4142199342       -6.3902870013        9.2126850000  MEMB      32              0.0000000000
      2320        32  CHL1      C13            49.7393946554       -8.1979309016        9.9579550000  MEMB      32              0.0000000000
      2321        32  CHL1      C18            49.9921932588       -9.6526765422        9.6653450000  MEMB      32              0.0000000000
      2322        32  CHL1      H18A           50.1522698228      -10.2098548894       10.6131050000  MEMB      32              0.0000000000
      2323        32  CHL1      H18B           49.2106383317      -10.1944616434        9.0909250000  MEMB      32              0.0000000000
      2324        32  CHL1      H18C           50.9743136229       -9.8465409090        9.1835050000  MEMB      32              0.0000000000
      2325        32  CHL1      C12            50.8370718008       -7.5583618145       10.7622250000  MEMB      32              0.0000000000
      2326        32  CHL1      H12A           51.7943713762       -7.6583692303       10.2073350000  MEMB      32              0.0000000000
      2327        32  CHL1      H12B           50.7227194358       -6.4535175784       10.7860550000  MEMB      32              0.0000000000
      2328        32  CHL1      C11            50.9405325421       -8.0254031997       12.1714850000  MEMB      32              0.0000000000
      2329        32  CHL1      H11A           51.3902918840       -9.0408840544       12.1423550000  MEMB      32              0.0000000000
      2330        32  CHL1      H11B           51.6777916236       -7.4306787165       12.7520750000  MEMB      32              0.0000000000
      2331        32  CHL1      C9             49.6340654085       -8.1344499388       12.9844650000  MEMB      32              0.0000000000
      2332        32  CHL1      H9             49.3478605928       -7.0646142741       13.0732150000  MEMB      32              0.0000000000
      2333        32  CHL1      C10            49.8503710438       -8.7529462731       14.3764450000  MEMB      32              0.0000000000
      2334        32  CHL1      C19            50.2719530073      -10.2625156409       14.2359750000  MEMB      32              0.0000000000
      2335        32  CHL1      H19A           51.3374708497      -10.3730767094       13.9413850000  MEMB      32              0.0000000000
      2336        32  CHL1      H19B           50.1150204148      -10.8341808905       15.1756050000  MEMB      32              0.0000000000
      2337        32  CHL1      H19C           49.6436006196      -10.6620634745       13.4114450000  MEMB      32              0.0000000000
      2338        32  CHL1      C1             50.8746942037       -7.8363136040       15.2291050000  MEMB      32              0.0000000000
      2339        32  CHL1      H1A            51.8577728818       -8.1632392877       14.8278650000  MEMB      32              0.0000000000
      2340        32  CHL1      H1B            50.7227062105       -6.7781212326       14.9266950000  MEMB      32              0.0000000000
      2341        32  CHL1      C2             50.8993511215       -7.9736543456       16.7214950000  MEMB      32              0.0000000000
      2342        32  CHL1      H2A            51.6000734970       -7.2884432202       17.2447550000  MEMB      32              0.0000000000
      2343        32  CHL1      H2B            51.3456994249       -8.9768913237       16.8906350000  MEMB      32              0.0000000000
      2344        32  CHL1      C20            50.2477159732       -7.3264396103        7.4805550000  MEMB      32              0.0000000000
      2345        32  CHL1      H20            51.2543862193       -7.3629628717        7.9491750000  MEMB      32              0.0000000000
      2346        32  CHL1      C21            50.1682184930       -5.9025154573        6.8439050000  MEMB      32              0.0000000000
      2347        32  CHL1      H21A           49.1442731309       -5.8495678462        6.4160650000  MEMB      32              0.0000000000
      2348        32  CHL1      H21B           50.9145755697       -5.8240716958        6.0246850000  MEMB      32              0.0000000000
      2349        32  CHL1      H21C           50.2450302214       -5.0364372093        7.5355350000  MEMB      32              0.0000000000
      2350        32  CHL1      C22            50.0674083765       -8.5431754488        6.5492850000  MEMB      32              0.0000000000
      2351        32  CHL1      H22A           50.5206803980       -9.3975933954        7.0959250000  MEMB      32              0.0000000000
      2352        32  CHL1      H22B           49.0225734343       -8.8115840605        6.2835850000  MEMB      32              0.0000000000
      2353        32  CHL1      C23            50.8737350193       -8.3033530854        5.1732550000  MEMB      32              0.0000000000
      2354        32  CHL1      H23A           50.5587257060       -7.3607855475        4.6766050000  MEMB      32              0.0000000000
      2355        32  CHL1      H23B           51.9492845500       -8.3416161883        5.4490050000  MEMB      32              0.0000000000
      2356        32  CHL1      C24            50.8280005083       -9.4574153033        4.2165750000  MEMB      32              0.0000000000
      2357        32  CHL1      H24A           51.7999722916       -9.4875359106        3.6792850000  MEMB      32              0.0000000000
      2358        32  CHL1      H24B           50.8247311800      -10.4211617468        4.7693050000  MEMB      32              0.0000000000
      2359        32  CHL1      C25            49.6863421321       -9.5843145237        3.1646850000  MEMB      32              0.0000000000
      2360        32  CHL1      H25            49.4229261538       -8.5292292687        2.9372250000  MEMB      32              0.0000000000
      2361        32  CHL1      C26            50.0840550104      -10.1006214267        1.8084050000  MEMB      32              0.0000000000
      2362        32  CHL1      H26A           50.9921715307       -9.5737241780        1.4450350000  MEMB      32              0.0000000000
      2363        32  CHL1      H26B           50.2855634108      -11.1912069113        1.7427250000  MEMB      32              0.0000000000
      2364        32  CHL1      H26C           49.3240784058       -9.9281487550        1.0165650000  MEMB      32              0.0000000000
      2365        32  CHL1      C27            48.3421817573      -10.1649014088        3.6676550000  MEMB      32              0.0000000000
      2366        32  CHL1      H27A           48.3871262201      -11.2154326859        4.0264050000  MEMB      32              0.0000000000
      2367        32  CHL1      H27B           48.0697732466       -9.5210270886        4.5311050000  MEMB      32              0.0000000000
      2368        32  CHL1      H27C           47.5679449679      -10.1774975515        2.8709650000  MEMB      32              0.0000000000
      2369        33  CHL1      C3             -9.4397924437       52.7282444969       17.3060100000  MEMB      33              0.0000000000
      2370        33  CHL1      H3             -8.4619764380       53.2064668887       17.0835100000  MEMB      33              0.0000000000
      2371        33  CHL1      O3             -9.6221211163       52.8420905031       18.6939900000  MEMB      33              0.0000000000
      2372        33  CHL1      H3'            -9.0958633967       53.5600236339       19.0534600000  MEMB      33              0.0000000000
      2373        33  CHL1      C4            -10.5136059220       53.5949841789       16.6566100000  MEMB      33              0.0000000000
      2374        33  CHL1      H4A           -11.4632279411       53.0462084518       16.8338000000  MEMB      33              0.0000000000
      2375        33  CHL1      H4B           -10.5963089548       54.6018334272       17.1189400000  MEMB      33              0.0000000000
      2376        33  CHL1      C5            -10.3146470348       53.6509277085       15.0976600000  MEMB      33              0.0000000000
      2377        33  CHL1      C6            -10.3334099516       54.8062186021       14.4775500000  MEMB      33              0.0000000000
      2378        33  CHL1      H6            -10.3317193569       55.7313470732       15.0726400000  MEMB      33              0.0000000000
      2379        33  CHL1      C7            -10.1826696479       54.8910140675       12.9429600000  MEMB      33              0.0000000000
      2380        33  CHL1      H7A           -10.9344445738       55.5197876874       12.4197100000  MEMB      33              0.0000000000
      2381        33  CHL1      H7B            -9.1558485842       55.1982299264       12.6503900000  MEMB      33              0.0000000000
      2382        33  CHL1      C8            -10.4742060356       53.5062911879       12.1926200000  MEMB      33              0.0000000000
      2383        33  CHL1      H8            -11.5754939442       53.3698197272       12.1392800000  MEMB      33              0.0000000000
      2384        33  CHL1      C14           -10.1422467620       53.5636863443       10.7442200000  MEMB      33              0.0000000000
      2385        33  CHL1      H14            -9.0407606105       53.6366667096       10.8696600000  MEMB      33              0.0000000000
      2386        33  CHL1      C15           -10.6812109786       54.7180444050        9.8984300000  MEMB      33              0.0000000000
      2387        33  CHL1      H15A          -11.7580582399       54.8534124229       10.1359000000  MEMB      33              0.0000000000
      2388        33  CHL1      H15B          -10.2014663274       55.6826470476       10.1699300000  MEMB      33              0.0000000000
      2389        33  CHL1      C16           -10.5476643740       54.2127629995        8.4614700000  MEMB      33              0.0000000000
      2390        33  CHL1      H16A          -11.5123268551       54.1473672129        7.9142400000  MEMB      33              0.0000000000
      2391        33  CHL1      H16B           -9.8321079899       54.7779871003        7.8267900000  MEMB      33              0.0000000000
      2392        33  CHL1      C17            -9.9233830304       52.8087134508        8.6070100000  MEMB      33              0.0000000000
      2393        33  CHL1      H17            -8.8179029091       52.7988367542        8.7171700000  MEMB      33              0.0000000000
      2394        33  CHL1      C13           -10.3894069768       52.2624634976        9.9741900000  MEMB      33              0.0000000000
      2395        33  CHL1      C18           -11.8815703489       51.8111622576        9.9338700000  MEMB      33              0.0000000000
      2396        33  CHL1      H18A          -12.2625709511       51.6411263405       10.9635600000  MEMB      33              0.0000000000
      2397        33  CHL1      H18B          -12.3253694649       52.7992515774        9.6868400000  MEMB      33              0.0000000000
      2398        33  CHL1      H18C          -12.0245436807       50.9183600174        9.2882900000  MEMB      33              0.0000000000
      2399        33  CHL1      C12            -9.5286032720       51.1933344510       10.6350200000  MEMB      33              0.0000000000
      2400        33  CHL1      H12A           -9.6747294077       50.2000099111       10.1593300000  MEMB      33              0.0000000000
      2401        33  CHL1      H12B           -8.4677285603       51.3796223018       10.3627000000  MEMB      33              0.0000000000
      2402        33  CHL1      C11            -9.8811321117       51.0574006707       12.1566100000  MEMB      33              0.0000000000
      2403        33  CHL1      H11A          -10.8476948432       50.5302367636       12.3055500000  MEMB      33              0.0000000000
      2404        33  CHL1      H11B           -9.1509821648       50.4011430976       12.6767300000  MEMB      33              0.0000000000
      2405        33  CHL1      C9             -9.8630812347       52.3682502770       12.9586100000  MEMB      33              0.0000000000
      2406        33  CHL1      H9             -8.7689673997       52.5238124336       13.0727700000  MEMB      33              0.0000000000
      2407        33  CHL1      C10           -10.2602083852       52.2842710217       14.3904400000  MEMB      33              0.0000000000
      2408        33  CHL1      C19           -11.6198489341       51.5293244584       14.5510100000  MEMB      33              0.0000000000
      2409        33  CHL1      H19A          -12.3309965354       51.9833631702       13.8282100000  MEMB      33              0.0000000000
      2410        33  CHL1      H19B          -11.4217730509       50.4926206526       14.2041200000  MEMB      33              0.0000000000
      2411        33  CHL1      H19C          -11.9143427192       51.4934786147       15.6216700000  MEMB      33              0.0000000000
      2412        33  CHL1      C1             -9.2045308127       51.4726250400       15.2367400000  MEMB      33              0.0000000000
      2413        33  CHL1      H1A            -9.1626202896       50.5001817106       14.7010900000  MEMB      33              0.0000000000
      2414        33  CHL1      H1B            -8.1408330715       51.7751665906       15.1302600000  MEMB      33              0.0000000000
      2415        33  CHL1      C2             -9.4242605231       51.3271388647       16.7500400000  MEMB      33              0.0000000000
      2416        33  CHL1      H2A            -8.7211573841       50.6384920484       17.2655300000  MEMB      33              0.0000000000
      2417        33  CHL1      H2B           -10.4534465279       50.9500662613       16.9314800000  MEMB      33              0.0000000000
      2418        33  CHL1      C20           -10.2001482907       51.9559202526        7.3388900000  MEMB      33              0.0000000000
      2419        33  CHL1      H20           -11.3079540065       51.9668150899        7.2554500000  MEMB      33              0.0000000000
      2420        33  CHL1      C21            -9.5386997646       50.5217206402        7.4403700000  MEMB      33              0.0000000000
      2421        33  CHL1      H21A           -9.0707691020       50.1869955350        6.4899300000  MEMB      33              0.0000000000
      2422        33  CHL1      H21B          -10.2605534223       49.7563995321        7.7974900000  MEMB      33              0.0000000000
      2423        33  CHL1      H21C           -8.7038401473       50.5358395057        8.1732700000  MEMB      33              0.0000000000
      2424        33  CHL1      C22            -9.6696379863       52.5880280024        6.0522900000  MEMB      33              0.0000000000
      2425        33  CHL1      H22A           -9.2560599659       53.6093886662        6.1940300000  MEMB      33              0.0000000000
      2426        33  CHL1      H22B           -8.7974727391       52.0025821500        5.6905000000  MEMB      33              0.0000000000
      2427        33  CHL1      C23           -10.6832602262       52.6170296386        4.8232000000  MEMB      33              0.0000000000
      2428        33  CHL1      H23A          -11.3958456837       51.7701495416        4.9197700000  MEMB      33              0.0000000000
      2429        33  CHL1      H23B          -11.2836279509       53.4986711084        5.1340200000  MEMB      33              0.0000000000
      2430        33  CHL1      C24           -10.0213371449       52.5613069303        3.5081500000  MEMB      33              0.0000000000
      2431        33  CHL1      H24A           -9.5239787743       53.5375506635        3.3240600000  MEMB      33              0.0000000000
      2432        33  CHL1      H24B           -9.2280394761       51.7836067020        3.4944400000  MEMB      33              0.0000000000
      2433        33  CHL1      C25           -11.0169424603       52.0735566606        2.3157800000  MEMB      33              0.0000000000
      2434        33  CHL1      H25           -12.0789646721       52.1990734398        2.6168900000  MEMB      33              0.0000000000
      2435        33  CHL1      C26           -10.8066582052       53.0067096207        1.0954100000  MEMB      33              0.0000000000
      2436        33  CHL1      H26A          -11.2870790459       53.9774904489        1.3426000000  MEMB      33              0.0000000000
      2437        33  CHL1      H26B           -9.7122383476       53.1031159885        0.9302400000  MEMB      33              0.0000000000
      2438        33  CHL1      H26C          -11.2017441690       52.5274203338        0.1742700000  MEMB      33              0.0000000000
      2439        33  CHL1      C27           -10.6758324655       50.7130271125        1.8291000000  MEMB      33              0.0000000000
      2440        33  CHL1      H27A          -10.6625636867       49.9072602753        2.5938800000  MEMB      33              0.0000000000
      2441        33  CHL1      H27B          -11.3782316769       50.4042924643        1.0255800000  MEMB      33              0.0000000000
      2442        33  CHL1      H27C           -9.6489123668       50.6822189742        1.4062300000  MEMB      33              0.0000000000
      2443        34  CHL1      C3             43.0334908853      -28.6872462673       17.4179800000  MEMB      34              0.0000000000
      2444        34  CHL1      H3             44.1159445687      -28.8744115948       17.5840600000  MEMB      34              0.0000000000
      2445        34  CHL1      O3             42.2616037147      -28.8916863327       18.5820200000  MEMB      34              0.0000000000
      2446        34  CHL1      H3'            42.2192202798      -29.8296673481       18.7820000000  MEMB      34              0.0000000000
      2447        34  CHL1      C4             42.8467450803      -27.3042043990       16.8097800000  MEMB      34              0.0000000000
      2448        34  CHL1      H4A            41.7715110714      -27.0254209319       16.7880400000  MEMB      34              0.0000000000
      2449        34  CHL1      H4B            43.2936241718      -26.6059824563       17.5494600000  MEMB      34              0.0000000000
      2450        34  CHL1      C5             43.4530460546      -27.1625097438       15.3946500000  MEMB      34              0.0000000000
      2451        34  CHL1      C6             44.1314465258      -26.0681973877       15.0729000000  MEMB      34              0.0000000000
      2452        34  CHL1      H6             44.4840158829      -25.3721628591       15.8483000000  MEMB      34              0.0000000000
      2453        34  CHL1      C7             44.7579974286      -25.7586553087       13.7354600000  MEMB      34              0.0000000000
      2454        34  CHL1      H7A            44.5532149494      -24.7216229340       13.3934700000  MEMB      34              0.0000000000
      2455        34  CHL1      H7B            45.8661825140      -25.7346280171       13.8106700000  MEMB      34              0.0000000000
      2456        34  CHL1      C8             44.3290734550      -26.7340798165       12.6412500000  MEMB      34              0.0000000000
      2457        34  CHL1      H8             43.3519342869      -26.4140768989       12.2204100000  MEMB      34              0.0000000000
      2458        34  CHL1      C14            45.2873237496      -26.7217883429       11.4945800000  MEMB      34              0.0000000000
      2459        34  CHL1      H14            46.2733055206      -26.9877481540       11.9321000000  MEMB      34              0.0000000000
      2460        34  CHL1      C15            45.5305420879      -25.4379683844       10.6940100000  MEMB      34              0.0000000000
      2461        34  CHL1      H15A           44.5784466703      -24.8885845977       10.5327000000  MEMB      34              0.0000000000
      2462        34  CHL1      H15B           46.1844156966      -24.8406766471       11.3648400000  MEMB      34              0.0000000000
      2463        34  CHL1      C16            46.1722326535      -25.9171542229        9.4133500000  MEMB      34              0.0000000000
      2464        34  CHL1      H16A           45.6898175620      -25.4586360174        8.5237800000  MEMB      34              0.0000000000
      2465        34  CHL1      H16B           47.2155905233      -25.5413643269        9.3462100000  MEMB      34              0.0000000000
      2466        34  CHL1      C17            46.0870895898      -27.4573240784        9.3057100000  MEMB      34              0.0000000000
      2467        34  CHL1      H17            47.0314084216      -27.8798715543        9.7107200000  MEMB      34              0.0000000000
      2468        34  CHL1      C13            45.0330998344      -27.7840343340       10.3792300000  MEMB      34              0.0000000000
      2469        34  CHL1      C18            43.6303108570      -27.4719595374        9.8066400000  MEMB      34              0.0000000000
      2470        34  CHL1      H18A           42.8017075377      -27.3563897241       10.5376500000  MEMB      34              0.0000000000
      2471        34  CHL1      H18B           43.5894494440      -26.5001128255        9.2698200000  MEMB      34              0.0000000000
      2472        34  CHL1      H18C           43.4709022830      -28.3469227701        9.1408000000  MEMB      34              0.0000000000
      2473        34  CHL1      C12            45.1688792648      -29.1608325453       11.0664300000  MEMB      34              0.0000000000
      2474        34  CHL1      H12A           44.9756000087      -29.9933117140       10.3565500000  MEMB      34              0.0000000000
      2475        34  CHL1      H12B           46.1930696517      -29.2737309005       11.4818900000  MEMB      34              0.0000000000
      2476        34  CHL1      C11            44.0705383819      -29.2975356758       12.1819400000  MEMB      34              0.0000000000
      2477        34  CHL1      H11A           43.1252669319      -29.1650923160       11.6133900000  MEMB      34              0.0000000000
      2478        34  CHL1      H11B           44.0630517219      -30.2698610664       12.7193900000  MEMB      34              0.0000000000
      2479        34  CHL1      C9             44.1877485688      -28.1283911648       13.2504400000  MEMB      34              0.0000000000
      2480        34  CHL1      H9             45.1787240065      -28.4280816591       13.6535300000  MEMB      34              0.0000000000
      2481        34  CHL1      C10            43.1255579157      -28.2873692607       14.3739800000  MEMB      34              0.0000000000
      2482        34  CHL1      C19            41.6762676702      -28.1799555549       13.8172300000  MEMB      34              0.0000000000
      2483        34  CHL1      H19A           41.6915180952      -27.2384821230       13.2275500000  MEMB      34              0.0000000000
      2484        34  CHL1      H19B           41.3269256024      -29.0562805877       13.2304400000  MEMB      34              0.0000000000
      2485        34  CHL1      H19C           40.9748244713      -27.9290713511       14.6414700000  MEMB      34              0.0000000000
      2486        34  CHL1      C1             43.3999885227      -29.6523852722       15.0789400000  MEMB      34              0.0000000000
      2487        34  CHL1      H1A            43.0651191646      -30.5275768270       14.4821000000  MEMB      34              0.0000000000
      2488        34  CHL1      H1B            44.4912397866      -29.7526653042       15.2618000000  MEMB      34              0.0000000000
      2489        34  CHL1      C2             42.6955866427      -29.8237611084       16.4087600000  MEMB      34              0.0000000000
      2490        34  CHL1      H2A            42.8620916987      -30.8225689770       16.8659100000  MEMB      34              0.0000000000
      2491        34  CHL1      H2B            41.6214746607      -29.6493412631       16.1847800000  MEMB      34              0.0000000000
      2492        34  CHL1      C20            45.9059404582      -28.1064095445        7.9304900000  MEMB      34              0.0000000000
      2493        34  CHL1      H20            44.9379122503      -27.7334148453        7.5328300000  MEMB      34              0.0000000000
      2494        34  CHL1      C21            45.8207364269      -29.6737588716        8.0109500000  MEMB      34              0.0000000000
      2495        34  CHL1      H21A           44.8409319851      -30.0160408538        8.4073800000  MEMB      34              0.0000000000
      2496        34  CHL1      H21B           46.7183476458      -30.0938287295        8.5131000000  MEMB      34              0.0000000000
      2497        34  CHL1      H21C           45.9221182986      -30.0180479553        6.9595200000  MEMB      34              0.0000000000
      2498        34  CHL1      C22            46.9962470426      -27.6100924033        6.9027100000  MEMB      34              0.0000000000
      2499        34  CHL1      H22A           47.2274499194      -26.5290915651        7.0136300000  MEMB      34              0.0000000000
      2500        34  CHL1      H22B           47.8025424148      -28.2988831828        7.2340500000  MEMB      34              0.0000000000
      2501        34  CHL1      C23            46.6328754700      -27.9109517903        5.3837100000  MEMB      34              0.0000000000
      2502        34  CHL1      H23A           45.8520021392      -28.6995394174        5.3318800000  MEMB      34              0.0000000000
      2503        34  CHL1      H23B           46.1042188273      -27.1020235644        4.8355300000  MEMB      34              0.0000000000
      2504        34  CHL1      C24            47.9315928010      -28.3897900930        4.6895300000  MEMB      34              0.0000000000
      2505        34  CHL1      H24A           48.6570049121      -27.5603439440        4.5477000000  MEMB      34              0.0000000000
      2506        34  CHL1      H24B           48.4369175244      -29.1463223339        5.3272100000  MEMB      34              0.0000000000
      2507        34  CHL1      C25            47.5056793265      -29.0215866542        3.3481300000  MEMB      34              0.0000000000
      2508        34  CHL1      H25            46.5854482305      -29.5973488125        3.5847300000  MEMB      34              0.0000000000
      2509        34  CHL1      C26            47.1585393372      -27.9707669586        2.2856200000  MEMB      34              0.0000000000
      2510        34  CHL1      H26A           48.0300613884      -27.2915089523        2.1699800000  MEMB      34              0.0000000000
      2511        34  CHL1      H26B           46.9662055562      -28.3493754641        1.2589800000  MEMB      34              0.0000000000
      2512        34  CHL1      H26C           46.3427348991      -27.3488262185        2.7122100000  MEMB      34              0.0000000000
      2513        34  CHL1      C27            48.4944287679      -29.9357623879        2.7434000000  MEMB      34              0.0000000000
      2514        34  CHL1      H27A           48.0223562256      -30.6672705521        2.0532100000  MEMB      34              0.0000000000
      2515        34  CHL1      H27B           49.4030838545      -29.4833808116        2.2917300000  MEMB      34              0.0000000000
      2516        34  CHL1      H27C           48.8820635483      -30.6061124653        3.5400700000  MEMB      34              0.0000000000
      2517        35  CHL1      C3             26.8142896647        4.7540021680       17.3315100000  MEMB      35              0.0000000000
      2518        35  CHL1      H3             27.4692143015        3.8568178827       17.3100300000  MEMB      35              0.0000000000
      2519        35  CHL1      O3             26.6041091353        5.0651905520       18.6684900000  MEMB      35              0.0000000000
      2520        35  CHL1      H3'            26.0790618925        4.3378199288       19.0103200000  MEMB      35              0.0000000000
      2521        35  CHL1      C4             27.4665017014        5.9673826730       16.6585000000  MEMB      35              0.0000000000
      2522        35  CHL1      H4A            26.7787051407        6.8193487284       16.8466700000  MEMB      35              0.0000000000
      2523        35  CHL1      H4B            28.3697173147        6.2270489173       17.2510300000  MEMB      35              0.0000000000
      2524        35  CHL1      C5             27.6691440548        5.8116048340       15.1428500000  MEMB      35              0.0000000000
      2525        35  CHL1      C6             28.8586406576        6.0675795998       14.6126400000  MEMB      35              0.0000000000
      2526        35  CHL1      H6             29.6400972874        6.4313357689       15.2960300000  MEMB      35              0.0000000000
      2527        35  CHL1      C7             29.2894655752        5.9209681347       13.1930400000  MEMB      35              0.0000000000
      2528        35  CHL1      H7A            29.9543556325        6.7637735204       12.9068200000  MEMB      35              0.0000000000
      2529        35  CHL1      H7B            29.9685823647        5.0431273817       13.1429300000  MEMB      35              0.0000000000
      2530        35  CHL1      C8             28.0709486651        5.6500602021       12.2672500000  MEMB      35              0.0000000000
      2531        35  CHL1      H8             27.6089755958        6.6407383162       12.0686000000  MEMB      35              0.0000000000
      2532        35  CHL1      C14            28.4928191411        5.0761290094       10.9483300000  MEMB      35              0.0000000000
      2533        35  CHL1      H14            28.7876658376        4.0195830365       11.1247100000  MEMB      35              0.0000000000
      2534        35  CHL1      C15            29.6953951002        5.7552785687       10.2547800000  MEMB      35              0.0000000000
      2535        35  CHL1      H15A           29.7269545065        6.8488745479       10.4481000000  MEMB      35              0.0000000000
      2536        35  CHL1      H15B           30.6028814048        5.4040953988       10.7909300000  MEMB      35              0.0000000000
      2537        35  CHL1      C16            29.4508389764        5.3610522636        8.8051300000  MEMB      35              0.0000000000
      2538        35  CHL1      H16A           29.4242234211        6.2958353547        8.2053100000  MEMB      35              0.0000000000
      2539        35  CHL1      H16B           30.2922952298        4.7587555161        8.4007600000  MEMB      35              0.0000000000
      2540        35  CHL1      C17            28.0723633946        4.5783388765        8.7026400000  MEMB      35              0.0000000000
      2541        35  CHL1      H17            28.3181787471        3.5128215155        8.8990300000  MEMB      35              0.0000000000
      2542        35  CHL1      C13            27.3415524163        5.0542928727        9.9010200000  MEMB      35              0.0000000000
      2543        35  CHL1      C18            26.7017682880        6.4626275063        9.6222900000  MEMB      35              0.0000000000
      2544        35  CHL1      H18A           27.5423538673        7.1585553439        9.4139100000  MEMB      35              0.0000000000
      2545        35  CHL1      H18B           25.9244039010        6.4749582948        8.8286500000  MEMB      35              0.0000000000
      2546        35  CHL1      H18C           26.2343025921        6.9795652010       10.4874900000  MEMB      35              0.0000000000
      2547        35  CHL1      C12            26.2624609267        4.1204248133       10.5299700000  MEMB      35              0.0000000000
      2548        35  CHL1      H12A           25.3959138386        4.1908466013        9.8382600000  MEMB      35              0.0000000000
      2549        35  CHL1      H12B           26.5705397284        3.0687495584       10.7126800000  MEMB      35              0.0000000000
      2550        35  CHL1      C11            25.8494804975        4.5812527564       11.9718000000  MEMB      35              0.0000000000
      2551        35  CHL1      H11A           25.2609064153        5.5198595769       11.8886500000  MEMB      35              0.0000000000
      2552        35  CHL1      H11B           25.2021754672        3.8570881079       12.5111500000  MEMB      35              0.0000000000
      2553        35  CHL1      C9             26.9889162385        4.8146914376       12.9176100000  MEMB      35              0.0000000000
      2554        35  CHL1      H9             27.5092650086        3.8578115417       13.1365500000  MEMB      35              0.0000000000
      2555        35  CHL1      C10            26.5320302949        5.2906264721       14.2926700000  MEMB      35              0.0000000000
      2556        35  CHL1      C19            25.5425156269        6.4980715793       14.1243900000  MEMB      35              0.0000000000
      2557        35  CHL1      H19A           24.5511560167        6.0854172403       13.8393800000  MEMB      35              0.0000000000
      2558        35  CHL1      H19B           25.2655682729        6.9496367293       15.1009700000  MEMB      35              0.0000000000
      2559        35  CHL1      H19C           25.9333922850        7.2189260752       13.3747800000  MEMB      35              0.0000000000
      2560        35  CHL1      C1             25.8355408277        4.1075338252       15.1288500000  MEMB      35              0.0000000000
      2561        35  CHL1      H1A            24.8820052896        3.8872808739       14.6029400000  MEMB      35              0.0000000000
      2562        35  CHL1      H1B            26.4020144151        3.1534844296       15.0720600000  MEMB      35              0.0000000000
      2563        35  CHL1      C2             25.5057642423        4.4687287146       16.6348300000  MEMB      35              0.0000000000
      2564        35  CHL1      H2A            25.0072881247        3.6164685122       17.1442400000  MEMB      35              0.0000000000
      2565        35  CHL1      H2B            24.8450139711        5.3525900993       16.7632700000  MEMB      35              0.0000000000
      2566        35  CHL1      C20            27.3838742986        4.6853688052        7.2930800000  MEMB      35              0.0000000000
      2567        35  CHL1      H20            27.3345229436        5.7803053874        7.1114100000  MEMB      35              0.0000000000
      2568        35  CHL1      C21            26.0436903148        3.9207341797        7.2244900000  MEMB      35              0.0000000000
      2569        35  CHL1      H21A           25.7603508100        3.8065216784        6.1563100000  MEMB      35              0.0000000000
      2570        35  CHL1      H21B           25.1267699411        4.3744017461        7.6578200000  MEMB      35              0.0000000000
      2571        35  CHL1      H21C           26.0824291467        2.8640724516        7.5654800000  MEMB      35              0.0000000000
      2572        35  CHL1      C22            28.3195973552        4.0302737329        6.2386500000  MEMB      35              0.0000000000
      2573        35  CHL1      H22A           29.3446941081        4.4102032418        6.4365300000  MEMB      35              0.0000000000
      2574        35  CHL1      H22B           28.2382478958        2.9436104518        6.4551200000  MEMB      35              0.0000000000
      2575        35  CHL1      C23            27.9854215888        4.3254245453        4.7307700000  MEMB      35              0.0000000000
      2576        35  CHL1      H23A           27.0300138683        3.8087256518        4.4972400000  MEMB      35              0.0000000000
      2577        35  CHL1      H23B           27.9407431487        5.4069590991        4.4805400000  MEMB      35              0.0000000000
      2578        35  CHL1      C24            28.8862596413        3.7274985686        3.7174500000  MEMB      35              0.0000000000
      2579        35  CHL1      H24A           28.8498648858        2.6251907010        3.5835700000  MEMB      35              0.0000000000
      2580        35  CHL1      H24B           28.6679384763        4.2339564682        2.7530000000  MEMB      35              0.0000000000
      2581        35  CHL1      C25            30.3507445825        4.0256715065        3.9699500000  MEMB      35              0.0000000000
      2582        35  CHL1      H25            30.5501527375        3.5093565254        4.9332700000  MEMB      35              0.0000000000
      2583        35  CHL1      C26            31.2579685862        3.4330928774        2.9125300000  MEMB      35              0.0000000000
      2584        35  CHL1      H26A           31.2551865041        4.0958006761        2.0208300000  MEMB      35              0.0000000000
      2585        35  CHL1      H26B           32.3271707686        3.3813524189        3.2099400000  MEMB      35              0.0000000000
      2586        35  CHL1      H26C           30.7810216857        2.4519960509        2.7021000000  MEMB      35              0.0000000000
      2587        35  CHL1      C27            30.6949020508        5.5445707123        4.0834100000  MEMB      35              0.0000000000
      2588        35  CHL1      H27A           31.7718092669        5.6822199255        4.3193100000  MEMB      35              0.0000000000
      2589        35  CHL1      H27B           30.4752466842        5.9839613532        3.0869100000  MEMB      35              0.0000000000
      2590        35  CHL1      H27C           29.9860466298        5.9710996046        4.8249700000  MEMB      35              0.0000000000
      2591        36  CHL1      C3             49.4166282293        0.1174770134       17.3066850000  MEMB      36              0.0000000000
      2592        36  CHL1      H3             50.1529964634        0.8201429448       16.8613250000  MEMB      36              0.0000000000
      2593        36  CHL1      O3             49.1773873707        0.3907404366       18.6933150000  MEMB      36              0.0000000000
      2594        36  CHL1      H3'            49.6953678610       -0.1751257224       19.2704450000  MEMB      36              0.0000000000
      2595        36  CHL1      C4             48.0618665611        0.2412211437       16.5372550000  MEMB      36              0.0000000000
      2596        36  CHL1      H4A            47.3594685888       -0.4628019213       17.0325550000  MEMB      36              0.0000000000
      2597        36  CHL1      H4B            47.6162444289        1.2429811063       16.7167350000  MEMB      36              0.0000000000
      2598        36  CHL1      C5             48.2322121485       -0.0312472195       15.0929750000  MEMB      36              0.0000000000
      2599        36  CHL1      C6             47.9207917342        0.9061809024       14.1573150000  MEMB      36              0.0000000000
      2600        36  CHL1      H6             47.4165854598        1.8429328648       14.4370850000  MEMB      36              0.0000000000
      2601        36  CHL1      C7             48.2602191734        0.7579772871       12.7421450000  MEMB      36              0.0000000000
      2602        36  CHL1      H7A            47.4421225766        1.2129697578       12.1437850000  MEMB      36              0.0000000000
      2603        36  CHL1      H7B            49.2236267709        1.2820560353       12.5646350000  MEMB      36              0.0000000000
      2604        36  CHL1      C8             48.4926629858       -0.7174169532       12.3239550000  MEMB      36              0.0000000000
      2605        36  CHL1      H8             47.4825469717       -1.1785641297       12.3601650000  MEMB      36              0.0000000000
      2606        36  CHL1      C14            49.1183516773       -0.7401814996       11.0068350000  MEMB      36              0.0000000000
      2607        36  CHL1      H14            50.1560137717       -0.3609732239       11.1242150000  MEMB      36              0.0000000000
      2608        36  CHL1      C15            48.5199169303        0.1849639503        9.8900450000  MEMB      36              0.0000000000
      2609        36  CHL1      H15A           47.4140000019        0.0793092841        9.9000650000  MEMB      36              0.0000000000
      2610        36  CHL1      H15B           48.8169314284        1.2371366833       10.0876050000  MEMB      36              0.0000000000
      2611        36  CHL1      C16            49.1600362610       -0.3581374720        8.5745250000  MEMB      36              0.0000000000
      2612        36  CHL1      H16A           48.4318225562       -0.8523806084        7.8964650000  MEMB      36              0.0000000000
      2613        36  CHL1      H16B           49.7411835880        0.4742383375        8.1231450000  MEMB      36              0.0000000000
      2614        36  CHL1      C17            50.0549061362       -1.5100520926        9.0008650000  MEMB      36              0.0000000000
      2615        36  CHL1      H17            51.0257579382       -1.0418475202        9.2702450000  MEMB      36              0.0000000000
      2616        36  CHL1      C13            49.4854806079       -2.0343815583       10.4573250000  MEMB      36              0.0000000000
      2617        36  CHL1      C18            48.2595418754       -2.8572838453       10.1657750000  MEMB      36              0.0000000000
      2618        36  CHL1      H18A           47.3878625493       -2.3760652498        9.6728950000  MEMB      36              0.0000000000
      2619        36  CHL1      H18B           48.5223439318       -3.7913570648        9.6246950000  MEMB      36              0.0000000000
      2620        36  CHL1      H18C           47.9794287589       -3.2241232449       11.1763650000  MEMB      36              0.0000000000
      2621        36  CHL1      C12            50.4274090332       -2.8669847025       11.4183250000  MEMB      36              0.0000000000
      2622        36  CHL1      H12A           50.5682957233       -3.9300922336       11.1280150000  MEMB      36              0.0000000000
      2623        36  CHL1      H12B           51.4770031926       -2.5064250146       11.4698850000  MEMB      36              0.0000000000
      2624        36  CHL1      C11            49.8304086723       -2.8917902663       12.8670050000  MEMB      36              0.0000000000
      2625        36  CHL1      H11A           49.0118759275       -3.6428325947       12.8506450000  MEMB      36              0.0000000000
      2626        36  CHL1      H11B           50.5418816879       -3.3344338933       13.5965250000  MEMB      36              0.0000000000
      2627        36  CHL1      C9             49.4230058092       -1.4384972799       13.3871450000  MEMB      36              0.0000000000
      2628        36  CHL1      H9             50.3861592110       -0.8882666468       13.3245850000  MEMB      36              0.0000000000
      2629        36  CHL1      C10            48.9065284011       -1.4099274179       14.7927350000  MEMB      36              0.0000000000
      2630        36  CHL1      C19            47.7421432583       -2.4446743026       14.9491850000  MEMB      36              0.0000000000
      2631        36  CHL1      H19A           46.9921012543       -2.2491105589       14.1532450000  MEMB      36              0.0000000000
      2632        36  CHL1      H19B           48.0917397570       -3.4838132728       14.7695050000  MEMB      36              0.0000000000
      2633        36  CHL1      H19C           47.2801532222       -2.4669687070       15.9593350000  MEMB      36              0.0000000000
      2634        36  CHL1      C1             50.0478276357       -1.8068122554       15.7168450000  MEMB      36              0.0000000000
      2635        36  CHL1      H1A            50.2080846591       -2.8975698334       15.5794050000  MEMB      36              0.0000000000
      2636        36  CHL1      H1B            50.9310357141       -1.2887753309       15.2856850000  MEMB      36              0.0000000000
      2637        36  CHL1      C2             49.9344210992       -1.3129928430       17.1820050000  MEMB      36              0.0000000000
      2638        36  CHL1      H2A            50.8935659161       -1.3343219470       17.7422750000  MEMB      36              0.0000000000
      2639        36  CHL1      H2B            49.3029434187       -2.0419707236       17.7334850000  MEMB      36              0.0000000000
      2640        36  CHL1      C20            50.4045574913       -2.6244684764        7.9539050000  MEMB      36              0.0000000000
      2641        36  CHL1      H20            49.4556693532       -3.0302082293        7.5424350000  MEMB      36              0.0000000000
      2642        36  CHL1      C21            51.2437466871       -3.7956016617        8.4690550000  MEMB      36              0.0000000000
      2643        36  CHL1      H21A           51.6807608198       -4.3881961849        7.6370950000  MEMB      36              0.0000000000
      2644        36  CHL1      H21B           50.6068796312       -4.4761215230        9.0737150000  MEMB      36              0.0000000000
      2645        36  CHL1      H21C           52.1040491309       -3.4007531928        9.0506950000  MEMB      36              0.0000000000
      2646        36  CHL1      C22            51.1540348244       -1.9738012376        6.8023650000  MEMB      36              0.0000000000
      2647        36  CHL1      H22A           51.2887893643       -0.8768793131        6.9159950000  MEMB      36              0.0000000000
      2648        36  CHL1      H22B           52.1653610703       -2.3948979545        6.9873750000  MEMB      36              0.0000000000
      2649        36  CHL1      C23            50.5884609354       -2.3629275208        5.4436850000  MEMB      36              0.0000000000
      2650        36  CHL1      H23A           51.2259479557       -1.9881245872        4.6145550000  MEMB      36              0.0000000000
      2651        36  CHL1      H23B           50.4892773695       -3.4625423262        5.3198250000  MEMB      36              0.0000000000
      2652        36  CHL1      C24            49.2324009194       -1.7667850641        5.1108150000  MEMB      36              0.0000000000
      2653        36  CHL1      H24A           48.4848130807       -2.0594055451        5.8788050000  MEMB      36              0.0000000000
      2654        36  CHL1      H24B           49.3555739470       -0.6628650845        5.1329750000  MEMB      36              0.0000000000
      2655        36  CHL1      C25            48.5543383480       -2.1807533288        3.7209450000  MEMB      36              0.0000000000
      2656        36  CHL1      H25            48.6341810216       -3.2887219715        3.7022250000  MEMB      36              0.0000000000
      2657        36  CHL1      C26            47.0915357620       -1.9151140169        3.7143050000  MEMB      36              0.0000000000
      2658        36  CHL1      H26A           46.6047729642       -2.5579592950        2.9500250000  MEMB      36              0.0000000000
      2659        36  CHL1      H26B           46.8032786842       -2.2312840501        4.7396250000  MEMB      36              0.0000000000
      2660        36  CHL1      H26C           46.7084278915       -0.8904566509        3.5203750000  MEMB      36              0.0000000000
      2661        36  CHL1      C27            49.1709678114       -1.4791198617        2.4858450000  MEMB      36              0.0000000000
      2662        36  CHL1      H27A           49.1155146583       -0.4007450662        2.7472850000  MEMB      36              0.0000000000
      2663        36  CHL1      H27B           50.2629184456       -1.6737966744        2.4221650000  MEMB      36              0.0000000000
      2664        36  CHL1      H27C           48.6200698712       -1.7410607938        1.5572850000  MEMB      36              0.0000000000
      2665        37  CHL1      C3            -46.2498494446      -51.0034141749       17.3291250000  MEMB      37              0.0000000000
      2666        37  CHL1      H3            -46.8719362286      -51.9200598227       17.2449050000  MEMB      37              0.0000000000
      2667        37  CHL1      O3            -45.8260075554      -50.9324280251       18.6708750000  MEMB      37              0.0000000000
      2668        37  CHL1      H3'           -46.6208107655      -50.7262490977       19.1682450000  MEMB      37              0.0000000000
      2669        37  CHL1      C4            -45.0277946899      -50.9815818248       16.4670150000  MEMB      37              0.0000000000
      2670        37  CHL1      H4A           -44.2466430564      -50.2220755104       16.6844550000  MEMB      37              0.0000000000
      2671        37  CHL1      H4B           -44.5009270693      -51.9544155290       16.5686250000  MEMB      37              0.0000000000
      2672        37  CHL1      C5            -45.3681073283      -50.8552610888       15.0152450000  MEMB      37              0.0000000000
      2673        37  CHL1      C6            -45.1088790448      -51.7840899952       14.0300750000  MEMB      37              0.0000000000
      2674        37  CHL1      H6            -44.5847596115      -52.7214814314       14.2679650000  MEMB      37              0.0000000000
      2675        37  CHL1      C7            -45.3554450274      -51.6684377841       12.5515350000  MEMB      37              0.0000000000
      2676        37  CHL1      H7A           -44.4033718189      -51.9903637811       12.0779950000  MEMB      37              0.0000000000
      2677        37  CHL1      H7B           -46.2083433624      -52.3315118749       12.2922850000  MEMB      37              0.0000000000
      2678        37  CHL1      C8            -45.7540768676      -50.2341529496       12.1652150000  MEMB      37              0.0000000000
      2679        37  CHL1      H8            -44.8344330173      -49.6115483856       12.1344850000  MEMB      37              0.0000000000
      2680        37  CHL1      C14           -46.3559137019      -50.1594956992       10.8261450000  MEMB      37              0.0000000000
      2681        37  CHL1      H14           -47.3180887833      -50.7123579686       10.8797750000  MEMB      37              0.0000000000
      2682        37  CHL1      C15           -45.6707814073      -50.8884717257        9.6407050000  MEMB      37              0.0000000000
      2683        37  CHL1      H15A          -44.6079032505      -50.5975821257        9.4992550000  MEMB      37              0.0000000000
      2684        37  CHL1      H15B          -45.6520314974      -51.9961874920        9.7240450000  MEMB      37              0.0000000000
      2685        37  CHL1      C16           -46.3810024962      -50.3614587902        8.4601750000  MEMB      37              0.0000000000
      2686        37  CHL1      H16A          -45.6764401304      -49.8116885866        7.8001250000  MEMB      37              0.0000000000
      2687        37  CHL1      H16B          -47.0635101966      -51.0597719068        7.9302050000  MEMB      37              0.0000000000
      2688        37  CHL1      C17           -47.3204642401      -49.2022947019        8.9376150000  MEMB      37              0.0000000000
      2689        37  CHL1      H17           -48.3161587380      -49.6462464790        9.1516650000  MEMB      37              0.0000000000
      2690        37  CHL1      C13           -46.8159268383      -48.7540616060       10.2970850000  MEMB      37              0.0000000000
      2691        37  CHL1      C18           -45.5515650460      -47.8740812952       10.1955350000  MEMB      37              0.0000000000
      2692        37  CHL1      H18A          -44.7363994621      -48.4618855817        9.7219150000  MEMB      37              0.0000000000
      2693        37  CHL1      H18B          -45.6613453040      -46.8932500344        9.6853850000  MEMB      37              0.0000000000
      2694        37  CHL1      H18C          -45.1856879941      -47.4674932155       11.1625650000  MEMB      37              0.0000000000
      2695        37  CHL1      C12           -47.8657026068      -48.1692307877       11.3055950000  MEMB      37              0.0000000000
      2696        37  CHL1      H12A          -48.1451491280      -47.1185643035       11.0768450000  MEMB      37              0.0000000000
      2697        37  CHL1      H12B          -48.7909477722      -48.7841992227       11.2983450000  MEMB      37              0.0000000000
      2698        37  CHL1      C11           -47.2928775094      -48.2623818430       12.7011150000  MEMB      37              0.0000000000
      2699        37  CHL1      H11A          -46.5476867480      -47.4422876036       12.7814150000  MEMB      37              0.0000000000
      2700        37  CHL1      H11B          -48.0467821516      -47.9500867206       13.4550550000  MEMB      37              0.0000000000
      2701        37  CHL1      C9            -46.6896770202      -49.5668065010       13.1956850000  MEMB      37              0.0000000000
      2702        37  CHL1      H9            -47.5413485091      -50.2730683695       13.2964550000  MEMB      37              0.0000000000
      2703        37  CHL1      C10           -46.1430131592      -49.5948874847       14.6531550000  MEMB      37              0.0000000000
      2704        37  CHL1      C19           -45.2387017684      -48.3284907885       14.8956150000  MEMB      37              0.0000000000
      2705        37  CHL1      H19A          -44.5000074877      -48.3793090901       14.0673250000  MEMB      37              0.0000000000
      2706        37  CHL1      H19B          -45.8103836181      -47.3909361132       14.7268250000  MEMB      37              0.0000000000
      2707        37  CHL1      H19C          -44.7737324955      -48.2968116955       15.9041350000  MEMB      37              0.0000000000
      2708        37  CHL1      C1            -47.4103170018      -49.5892121024       15.5845150000  MEMB      37              0.0000000000
      2709        37  CHL1      H1A           -47.9581497073      -48.6241448786       15.5310350000  MEMB      37              0.0000000000
      2710        37  CHL1      H1B           -47.9897882573      -50.4675856098       15.2281550000  MEMB      37              0.0000000000
      2711        37  CHL1      C2            -47.1089603040      -49.7244349274       17.1289150000  MEMB      37              0.0000000000
      2712        37  CHL1      H2A           -48.0646858311      -50.0019270522       17.6227850000  MEMB      37              0.0000000000
      2713        37  CHL1      H2B           -46.7038373139      -48.8158694981       17.6236150000  MEMB      37              0.0000000000
      2714        37  CHL1      C20           -47.6644583676      -48.2714188956        7.7859850000  MEMB      37              0.0000000000
      2715        37  CHL1      H20           -46.7225335217      -47.8995808240        7.3290050000  MEMB      37              0.0000000000
      2716        37  CHL1      C21           -48.4433265139      -47.0292970491        8.2850550000  MEMB      37              0.0000000000
      2717        37  CHL1      H21A          -49.3302858902      -47.3011526421        8.8963850000  MEMB      37              0.0000000000
      2718        37  CHL1      H21B          -48.7441262703      -46.4250128269        7.4026250000  MEMB      37              0.0000000000
      2719        37  CHL1      H21C          -47.7194758235      -46.3872381516        8.8310550000  MEMB      37              0.0000000000
      2720        37  CHL1      C22           -48.2673747547      -49.0417693703        6.5570950000  MEMB      37              0.0000000000
      2721        37  CHL1      H22A          -47.4984626424      -49.7750410857        6.2324350000  MEMB      37              0.0000000000
      2722        37  CHL1      H22B          -49.1258402797      -49.6721019752        6.8733950000  MEMB      37              0.0000000000
      2723        37  CHL1      C23           -48.4667961632      -48.2926161631        5.3166750000  MEMB      37              0.0000000000
      2724        37  CHL1      H23A          -47.8538792085      -47.3659847889        5.3184150000  MEMB      37              0.0000000000
      2725        37  CHL1      H23B          -48.0041916638      -48.8594824792        4.4806250000  MEMB      37              0.0000000000
      2726        37  CHL1      C24           -49.8387845801      -47.9195430781        4.9279150000  MEMB      37              0.0000000000
      2727        37  CHL1      H24A          -50.1455119034      -48.8153433302        4.3467250000  MEMB      37              0.0000000000
      2728        37  CHL1      H24B          -50.5686562266      -47.7861734807        5.7548350000  MEMB      37              0.0000000000
      2729        37  CHL1      C25           -50.0984836928      -46.6854949048        4.0424250000  MEMB      37              0.0000000000
      2730        37  CHL1      H25           -51.1802166829      -46.4435119119        4.1173850000  MEMB      37              0.0000000000
      2731        37  CHL1      C26           -49.2824382180      -45.4457912374        4.3450450000  MEMB      37              0.0000000000
      2732        37  CHL1      H26A          -49.4469229750      -45.0410170414        5.3665250000  MEMB      37              0.0000000000
      2733        37  CHL1      H26B          -48.1788931912      -45.5724442673        4.3235150000  MEMB      37              0.0000000000
      2734        37  CHL1      H26C          -49.6356119503      -44.6026908796        3.7135650000  MEMB      37              0.0000000000
      2735        37  CHL1      C27           -49.5225162555      -46.9814736671        2.6158050000  MEMB      37              0.0000000000
      2736        37  CHL1      H27A          -48.6021198427      -47.6003899682        2.5514850000  MEMB      37              0.0000000000
      2737        37  CHL1      H27B          -50.2737230109      -47.4903895756        1.9746950000  MEMB      37              0.0000000000
      2738        37  CHL1      H27C          -49.3593381850      -45.9954789488        2.1305250000  MEMB      37              0.0000000000
      2739        38  CHL1      C3             12.7955198573      -36.1505919678       17.3346200000  MEMB      38              0.0000000000
      2740        38  CHL1      H3             13.3662757481      -35.1974114165       17.3342500000  MEMB      38              0.0000000000
      2741        38  CHL1      O3             12.5633353427      -36.5396106322       18.6653800000  MEMB      38              0.0000000000
      2742        38  CHL1      H3'            13.4288499768      -36.8892983900       18.8894200000  MEMB      38              0.0000000000
      2743        38  CHL1      C4             11.4238899824      -35.8897906468       16.7781800000  MEMB      38              0.0000000000
      2744        38  CHL1      H4A            10.7467642748      -36.7562587626       16.9364600000  MEMB      38              0.0000000000
      2745        38  CHL1      H4B            10.8567705234      -35.1963952270       17.4353700000  MEMB      38              0.0000000000
      2746        38  CHL1      C5             11.4157487197      -35.4982242797       15.2533500000  MEMB      38              0.0000000000
      2747        38  CHL1      C6             10.9169624374      -34.3478429659       14.8331200000  MEMB      38              0.0000000000
      2748        38  CHL1      H6             10.4555960541      -33.5881261004       15.4811700000  MEMB      38              0.0000000000
      2749        38  CHL1      C7             11.1006140762      -34.0134025919       13.3606700000  MEMB      38              0.0000000000
      2750        38  CHL1      H7A            10.2489267307      -33.4188049270       12.9664600000  MEMB      38              0.0000000000
      2751        38  CHL1      H7B            11.8865204023      -33.2334794740       13.2689600000  MEMB      38              0.0000000000
      2752        38  CHL1      C8             11.5503020896      -35.0404843807       12.3032700000  MEMB      38              0.0000000000
      2753        38  CHL1      H8             10.6842056947      -35.6863543470       12.0443200000  MEMB      38              0.0000000000
      2754        38  CHL1      C14            12.1981251295      -34.3838321036       11.0810300000  MEMB      38              0.0000000000
      2755        38  CHL1      H14            13.1083455238      -33.8870433272       11.4798000000  MEMB      38              0.0000000000
      2756        38  CHL1      C15            11.4559256261      -33.2931757150       10.2078200000  MEMB      38              0.0000000000
      2757        38  CHL1      H15A           10.3864597568      -33.5939007862       10.1960800000  MEMB      38              0.0000000000
      2758        38  CHL1      H15B           11.5062995048      -32.2649641733       10.6256300000  MEMB      38              0.0000000000
      2759        38  CHL1      C16            12.1242507444      -33.3586311135        8.8616500000  MEMB      38              0.0000000000
      2760        38  CHL1      H16A           11.3247312931      -33.5355445866        8.1108000000  MEMB      38              0.0000000000
      2761        38  CHL1      H16B           12.5200557901      -32.3303385208        8.7192800000  MEMB      38              0.0000000000
      2762        38  CHL1      C17            13.0978609381      -34.5909931986        8.8820400000  MEMB      38              0.0000000000
      2763        38  CHL1      H17            13.9760913803      -34.0505521890        9.2954900000  MEMB      38              0.0000000000
      2764        38  CHL1      C13            12.6249253638      -35.4798046187       10.0544600000  MEMB      38              0.0000000000
      2765        38  CHL1      C18            11.4260048586      -36.2765359803        9.5342700000  MEMB      38              0.0000000000
      2766        38  CHL1      H18A           11.7008710982      -37.1825397680        8.9529600000  MEMB      38              0.0000000000
      2767        38  CHL1      H18B           10.6372542497      -36.6895010956       10.1988400000  MEMB      38              0.0000000000
      2768        38  CHL1      H18C           10.8628320488      -35.6171889784        8.8397000000  MEMB      38              0.0000000000
      2769        38  CHL1      C12            13.6988583104      -36.4056566228       10.7077400000  MEMB      38              0.0000000000
      2770        38  CHL1      H12A           13.8454068170      -37.3446338511       10.1322800000  MEMB      38              0.0000000000
      2771        38  CHL1      H12B           14.6668461240      -35.9090672641       10.9329800000  MEMB      38              0.0000000000
      2772        38  CHL1      C11            13.1594082794      -36.9676911919       12.0052800000  MEMB      38              0.0000000000
      2773        38  CHL1      H11A           12.2966555545      -37.5879977709       11.6809400000  MEMB      38              0.0000000000
      2774        38  CHL1      H11B           13.8574391434      -37.7789085385       12.3036000000  MEMB      38              0.0000000000
      2775        38  CHL1      C9             12.5645736209      -35.9417407362       12.9546800000  MEMB      38              0.0000000000
      2776        38  CHL1      H9             13.2990977974      -35.1915160004       13.3179400000  MEMB      38              0.0000000000
      2777        38  CHL1      C10            12.1636810760      -36.4359949695       14.3635600000  MEMB      38              0.0000000000
      2778        38  CHL1      C19            11.3278472293      -37.6418332376       14.1854200000  MEMB      38              0.0000000000
      2779        38  CHL1      H19A           11.8154317759      -38.5440197628       13.7580500000  MEMB      38              0.0000000000
      2780        38  CHL1      H19B           10.9968757437      -38.0332181948       15.1711200000  MEMB      38              0.0000000000
      2781        38  CHL1      H19C           10.3609441865      -37.5219662285       13.6515300000  MEMB      38              0.0000000000
      2782        38  CHL1      C1             13.5314336799      -36.8366325979       15.0386600000  MEMB      38              0.0000000000
      2783        38  CHL1      H1A            14.1418827070      -37.5774569701       14.4793300000  MEMB      38              0.0000000000
      2784        38  CHL1      H1B            14.1875239606      -35.9403824068       15.0632700000  MEMB      38              0.0000000000
      2785        38  CHL1      C2             13.3817692930      -37.3074969918       16.5069500000  MEMB      38              0.0000000000
      2786        38  CHL1      H2A            14.4074322935      -37.5619131736       16.8498800000  MEMB      38              0.0000000000
      2787        38  CHL1      H2B            12.7531885217      -38.2189837210       16.5985800000  MEMB      38              0.0000000000
      2788        38  CHL1      C20            13.5165583952      -35.0927447470        7.5039400000  MEMB      38              0.0000000000
      2789        38  CHL1      H20            12.6292538815      -35.5879379620        7.0547200000  MEMB      38              0.0000000000
      2790        38  CHL1      C21            14.6358103562      -36.1347519264        7.3710800000  MEMB      38              0.0000000000
      2791        38  CHL1      H21A           14.5982557026      -36.6667013143        6.3964400000  MEMB      38              0.0000000000
      2792        38  CHL1      H21B           14.5082925992      -36.9278587651        8.1385700000  MEMB      38              0.0000000000
      2793        38  CHL1      H21C           15.6777152897      -35.7654428387        7.4823300000  MEMB      38              0.0000000000
      2794        38  CHL1      C22            13.7243349486      -33.9219836347        6.5078400000  MEMB      38              0.0000000000
      2795        38  CHL1      H22A           12.7079848204      -33.5106821591        6.3284700000  MEMB      38              0.0000000000
      2796        38  CHL1      H22B           14.3266473760      -33.1321793800        7.0055900000  MEMB      38              0.0000000000
      2797        38  CHL1      C23            14.2295826032      -34.2765052503        5.0713000000  MEMB      38              0.0000000000
      2798        38  CHL1      H23A           15.3311719257      -34.3933329550        5.1559900000  MEMB      38              0.0000000000
      2799        38  CHL1      H23B           13.8256870549      -35.2777919943        4.8093500000  MEMB      38              0.0000000000
      2800        38  CHL1      C24            13.9121971264      -33.1340490461        4.1336400000  MEMB      38              0.0000000000
      2801        38  CHL1      H24A           12.8526485751      -32.8036467370        4.1837100000  MEMB      38              0.0000000000
      2802        38  CHL1      H24B           14.6578046846      -32.3276424275        4.3013100000  MEMB      38              0.0000000000
      2803        38  CHL1      C25            14.1953383286      -33.5932507758        2.7048500000  MEMB      38              0.0000000000
      2804        38  CHL1      H25            13.7133054476      -34.5599526485        2.4451300000  MEMB      38              0.0000000000
      2805        38  CHL1      C26            13.6786661448      -32.4695339427        1.7857600000  MEMB      38              0.0000000000
      2806        38  CHL1      H26A           12.5750726478      -32.3801190176        1.8774600000  MEMB      38              0.0000000000
      2807        38  CHL1      H26B           14.0904167824      -31.4939227916        2.1218900000  MEMB      38              0.0000000000
      2808        38  CHL1      H26C           13.8047919011      -32.6770940268        0.7016400000  MEMB      38              0.0000000000
      2809        38  CHL1      C27            15.6731308762      -33.7467043884        2.3539200000  MEMB      38              0.0000000000
      2810        38  CHL1      H27A           15.6549306527      -34.2459281222        1.3615600000  MEMB      38              0.0000000000
      2811        38  CHL1      H27B           16.1225219250      -32.7613031231        2.1062100000  MEMB      38              0.0000000000
      2812        38  CHL1      H27C           16.2944687609      -34.1630861406        3.1754400000  MEMB      38              0.0000000000
      2813        39  POPC      N              22.7072696427        8.9286591173       20.9223429680  MEMB      39              0.0000000000
      2814        39  POPC      C12            24.1191438539        9.0910725116       20.4124150129  MEMB      39              0.0000000000
      2815        39  POPC      H12A           24.3399054088        8.1809351690       19.8745354796  MEMB      39              0.0000000000
      2816        39  POPC      H12B           24.7983303633        9.2776555553       21.2311289069  MEMB      39              0.0000000000
      2817        39  POPC      C13            22.0347224839       10.2259674487       21.1377216315  MEMB      39              0.0000000000
      2818        39  POPC      H13A           22.5989904361       10.7703604377       21.8804449844  MEMB      39              0.0000000000
      2819        39  POPC      H13B           21.9077508658       10.7574916502       20.2061851665  MEMB      39              0.0000000000
      2820        39  POPC      H13C           21.0418683527       10.1593498518       21.5574863988  MEMB      39              0.0000000000
      2821        39  POPC      C14            22.0240651364        7.9213763454       20.0262594272  MEMB      39              0.0000000000
      2822        39  POPC      H14A           22.6059520026        7.0126886538       20.0720227877  MEMB      39              0.0000000000
      2823        39  POPC      H14B           21.0681076549        7.7081549398       20.4813220392  MEMB      39              0.0000000000
      2824        39  POPC      H14C           21.9644303892        8.2111259307       18.9875636640  MEMB      39              0.0000000000
      2825        39  POPC      C15            22.8375308196        8.2597327606       22.3238481350  MEMB      39              0.0000000000
      2826        39  POPC      H15A           23.2536173074        7.2709943178       22.1986750574  MEMB      39              0.0000000000
      2827        39  POPC      H15B           21.8935215243        8.1381587458       22.8342073344  MEMB      39              0.0000000000
      2828        39  POPC      H15C           23.5716584206        8.8820444971       22.8139348099  MEMB      39              0.0000000000
      2829        39  POPC      C11            24.4700652639       10.1300623230       19.3892240294  MEMB      39              0.0000000000
      2830        39  POPC      H11A           25.5434228174       10.1697639176       19.1052376659  MEMB      39              0.0000000000
      2831        39  POPC      H11B           24.3807458744       11.1166488332       19.8922050634  MEMB      39              0.0000000000
      2832        39  POPC      P              23.8484363593        9.3152128790       16.9518221578  MEMB      39              0.0000000000
      2833        39  POPC      O13            24.2758044102        7.9607662624       17.3002178363  MEMB      39              0.0000000000
      2834        39  POPC      O14            24.7620327490       10.1383214376       16.0849340495  MEMB      39              0.0000000000
      2835        39  POPC      O12            23.5103487388       10.0655641382       18.2857298845  MEMB      39              0.0000000000
      2836        39  POPC      O11            22.4395128569        9.2063659903       16.1654848732  MEMB      39              0.0000000000
      2837        39  POPC      C1             21.4614745043        8.2988297343       16.6581176055  MEMB      39              0.0000000000
      2838        39  POPC      HA             21.0788155875        8.6805775713       17.6287677946  MEMB      39              0.0000000000
      2839        39  POPC      HB             21.9227804905        7.2883494322       16.6792641176  MEMB      39              0.0000000000
      2840        39  POPC      C2             20.2064718244        8.2367452441       15.6828582472  MEMB      39              0.0000000000
      2841        39  POPC      HS             19.4411236564        7.5191736967       16.0484454230  MEMB      39              0.0000000000
      2842        39  POPC      O21            20.7304533902        7.7202606655       14.4299438552  MEMB      39              0.0000000000
      2843        39  POPC      C21            20.9460980016        6.4939837624       14.1806258751  MEMB      39              0.0000000000
      2844        39  POPC      O22            20.5872436744        5.4940882959       14.8093435856  MEMB      39              0.0000000000
      2845        39  POPC      C22            21.7202819536        6.3056666576       12.8969267585  MEMB      39              0.0000000000
      2846        39  POPC      H2R            22.0560949160        5.2467394998       12.8819638843  MEMB      39              0.0000000000
      2847        39  POPC      H2S            22.6497701509        6.9122670409       12.9460059472  MEMB      39              0.0000000000
      2848        39  POPC      C3             19.6914768149        9.6916266207       15.4435134793  MEMB      39              0.0000000000
      2849        39  POPC      HX             19.1667202001       10.0041883988       16.3715525186  MEMB      39              0.0000000000
      2850        39  POPC      HY             18.8568108334        9.6954277653       14.7102743667  MEMB      39              0.0000000000
      2851        39  POPC      O31            20.7114191760       10.6255370394       15.1799241417  MEMB      39              0.0000000000
      2852        39  POPC      C31            20.7328086783       11.2013999715       13.9998191646  MEMB      39              0.0000000000
      2853        39  POPC      O32            19.8086868507       11.2399405348       13.1939200452  MEMB      39              0.0000000000
      2854        39  POPC      C32            22.0235703233       12.0317554851       13.9917674378  MEMB      39              0.0000000000
      2855        39  POPC      H2X            22.6808053355       11.7244752301       14.8331602511  MEMB      39              0.0000000000
      2856        39  POPC      H2Y            21.6136132125       13.0382662095       14.2224018726  MEMB      39              0.0000000000
      2857        39  POPC      C23            20.8263573440        6.7006112569       11.6633075077  MEMB      39              0.0000000000
      2858        39  POPC      H3R            20.3467924229        7.6890807457       11.8284338228  MEMB      39              0.0000000000
      2859        39  POPC      H3S            20.0784324000        5.8799180182       11.6259958921  MEMB      39              0.0000000000
      2860        39  POPC      C24            21.5522751683        6.8022329370       10.3421554578  MEMB      39              0.0000000000
      2861        39  POPC      H4R            22.2922914338        5.9801423834       10.2379244185  MEMB      39              0.0000000000
      2862        39  POPC      H4S            22.0127515903        7.8104721555       10.2664196176  MEMB      39              0.0000000000
      2863        39  POPC      C25            20.5060392097        6.6755678120        9.1434281452  MEMB      39              0.0000000000
      2864        39  POPC      H5R            19.9884653205        5.7111225220        9.3339091512  MEMB      39              0.0000000000
      2865        39  POPC      H5S            21.1083778600        6.5349646119        8.2205308063  MEMB      39              0.0000000000
      2866        39  POPC      C26            19.5012107758        7.7583349299        8.9187568014  MEMB      39              0.0000000000
      2867        39  POPC      H6R            18.8272971074        7.9006373361        9.7904858957  MEMB      39              0.0000000000
      2868        39  POPC      H6S            18.9092631407        7.6126284918        7.9899465920  MEMB      39              0.0000000000
      2869        39  POPC      C27            20.0679209003        9.2586192057        8.8799279692  MEMB      39              0.0000000000
      2870        39  POPC      H7R            20.3993342732        9.5293921350        9.9051930242  MEMB      39              0.0000000000
      2871        39  POPC      H7S            19.1701599894        9.8978218460        8.7393358196  MEMB      39              0.0000000000
      2872        39  POPC      C28            21.0571559092        9.4595364916        7.7817683180  MEMB      39              0.0000000000
      2873        39  POPC      H8R            21.7116888734        8.5627223433        7.7413726157  MEMB      39              0.0000000000
      2874        39  POPC      H8S            21.7547172607       10.2903100866        8.0216531508  MEMB      39              0.0000000000
      2875        39  POPC      C29            20.4217286018        9.8181547863        6.4659666740  MEMB      39              0.0000000000
      2876        39  POPC      H91            19.9992407603        9.0284187137        5.8273574336  MEMB      39              0.0000000000
      2877        39  POPC      C210           20.3390035485       11.0151734017        5.8586195345  MEMB      39              0.0000000000
      2878        39  POPC      H101           19.8106397063       11.1365431991        4.9014880941  MEMB      39              0.0000000000
      2879        39  POPC      C211           20.8941435744       12.3482702861        6.3528779939  MEMB      39              0.0000000000
      2880        39  POPC      H11R           21.5034083902       12.2034535433        7.2705634131  MEMB      39              0.0000000000
      2881        39  POPC      H11S           20.0221457663       13.0293463197        6.4532595650  MEMB      39              0.0000000000
      2882        39  POPC      C212           21.9225199725       12.9358436981        5.3556904823  MEMB      39              0.0000000000
      2883        39  POPC      H12R           22.7094820873       12.1576783966        5.2583733787  MEMB      39              0.0000000000
      2884        39  POPC      H12S           22.3593251622       13.8407599499        5.8296618299  MEMB      39              0.0000000000
      2885        39  POPC      C213           21.4363388758       13.1823810469        3.9215464644  MEMB      39              0.0000000000
      2886        39  POPC      H13R           20.5234897166       13.8053441212        4.0353212244  MEMB      39              0.0000000000
      2887        39  POPC      H13S           21.0565309830       12.2417913408        3.4683830978  MEMB      39              0.0000000000
      2888        39  POPC      C214           22.5331738452       13.7980618664        3.0149192254  MEMB      39              0.0000000000
      2889        39  POPC      H14R           23.2220778180       14.4278216445        3.6175261094  MEMB      39              0.0000000000
      2890        39  POPC      H14S           21.9398130855       14.4413209986        2.3304763507  MEMB      39              0.0000000000
      2891        39  POPC      C215           23.3488899243       12.8137168691        2.1187716600  MEMB      39              0.0000000000
      2892        39  POPC      H15R           22.6912699814       12.4781517573        1.2885600917  MEMB      39              0.0000000000
      2893        39  POPC      H15S           23.8038637911       12.0203172531        2.7495159035  MEMB      39              0.0000000000
      2894        39  POPC      C216           24.4419541047       13.5764351856        1.3758173269  MEMB      39              0.0000000000
      2895        39  POPC      H16R           25.2063727049       14.1752828421        1.9156000913  MEMB      39              0.0000000000
      2896        39  POPC      H16S           23.9670211545       14.3052271683        0.6847142543  MEMB      39              0.0000000000
      2897        39  POPC      C217           25.1983467757       12.5668507592        0.4144607623  MEMB      39              0.0000000000
      2898        39  POPC      H17R           24.4853632099       11.7234743970        0.2932498944  MEMB      39              0.0000000000
      2899        39  POPC      H17S           26.1218673275       12.2768161490        0.9597223871  MEMB      39              0.0000000000
      2900        39  POPC      C218           25.5637551002       13.2310939943       -0.8981287671  MEMB      39              0.0000000000
      2901        39  POPC      H18R           26.0593985209       14.1834918405       -0.6124766766  MEMB      39              0.0000000000
      2902        39  POPC      H18S           24.5913469664       13.3906860524       -1.4112307011  MEMB      39              0.0000000000
      2903        39  POPC      H18T           26.2477051167       12.5572234621       -1.4570850965  MEMB      39              0.0000000000
      2904        39  POPC      C33            22.6321673783       12.0520264003       12.5385872820  MEMB      39              0.0000000000
      2905        39  POPC      H3X            23.4462413514       12.8038704884       12.6181782424  MEMB      39              0.0000000000
      2906        39  POPC      H3Y            21.8409542183       12.4384959076       11.8611333554  MEMB      39              0.0000000000
      2907        39  POPC      C34            23.2207228924       10.7331560671       11.9950514975  MEMB      39              0.0000000000
      2908        39  POPC      H4X            22.3406415719       10.1269188343       11.6913174536  MEMB      39              0.0000000000
      2909        39  POPC      H4Y            23.6208375291       10.1683499421       12.8640873732  MEMB      39              0.0000000000
      2910        39  POPC      C35            24.2777953459       10.9168667652       10.8964517177  MEMB      39              0.0000000000
      2911        39  POPC      H5X            25.1213958357       11.3956880987       11.4381057366  MEMB      39              0.0000000000
      2912        39  POPC      H5Y            24.0412974644       11.6968594147       10.1414674890  MEMB      39              0.0000000000
      2913        39  POPC      C36            24.5406265060        9.5659803564       10.1400559192  MEMB      39              0.0000000000
      2914        39  POPC      H6X            23.5757235441        9.3599585322        9.6293332570  MEMB      39              0.0000000000
      2915        39  POPC      H6Y            24.8356894559        8.7654512479       10.8516823338  MEMB      39              0.0000000000
      2916        39  POPC      C37            25.6169057232        9.6564776627        9.1285252905  MEMB      39              0.0000000000
      2917        39  POPC      H7X            26.4961603268        9.8546008991        9.7781244877  MEMB      39              0.0000000000
      2918        39  POPC      H7Y            25.5171248299       10.5024829310        8.4153359121  MEMB      39              0.0000000000
      2919        39  POPC      C38            25.8772660699        8.4004730431        8.2365499614  MEMB      39              0.0000000000
      2920        39  POPC      H8X            26.4068095888        7.6580033933        8.8710910797  MEMB      39              0.0000000000
      2921        39  POPC      H8Y            26.6913053146        8.7437608801        7.5628917181  MEMB      39              0.0000000000
      2922        39  POPC      C39            24.6566746485        7.8142207542        7.4922772206  MEMB      39              0.0000000000
      2923        39  POPC      H9X            24.1440505174        8.6022159608        6.9001614155  MEMB      39              0.0000000000
      2924        39  POPC      H9Y            23.9217875488        7.5805830896        8.2920738273  MEMB      39              0.0000000000
      2925        39  POPC      C310           24.9189363914        6.5350783030        6.5688773294  MEMB      39              0.0000000000
      2926        39  POPC      H10X           25.5622499223        5.9493977540        7.2598526041  MEMB      39              0.0000000000
      2927        39  POPC      H10Y           25.5021784598        6.7243422200        5.6424171267  MEMB      39              0.0000000000
      2928        39  POPC      C311           23.6918713636        5.6915070577        6.3202977257  MEMB      39              0.0000000000
      2929        39  POPC      H11X           22.8016652567        5.8505140314        6.9657205645  MEMB      39              0.0000000000
      2930        39  POPC      H11Y           23.9074789896        4.6419822849        6.6141211306  MEMB      39              0.0000000000
      2931        39  POPC      C312           23.2852450801        5.6131126343        4.8253461970  MEMB      39              0.0000000000
      2932        39  POPC      H12X           22.4969884176        4.8805401852        4.5491028055  MEMB      39              0.0000000000
      2933        39  POPC      H12Y           24.1499487994        5.2919991423        4.2060768222  MEMB      39              0.0000000000
      2934        39  POPC      C313           22.9749724811        7.0427207090        4.2521892952  MEMB      39              0.0000000000
      2935        39  POPC      H13X           23.6738627526        7.8769879394        4.4755086781  MEMB      39              0.0000000000
      2936        39  POPC      H13Y           21.9828777039        7.1762524005        4.7341000795  MEMB      39              0.0000000000
      2937        39  POPC      C314           22.7472441782        7.1100752143        2.6719333442  MEMB      39              0.0000000000
      2938        39  POPC      H14X           22.1182674980        6.3182830236        2.2117431753  MEMB      39              0.0000000000
      2939        39  POPC      H14Y           23.7309744537        6.9040392652        2.1984929174  MEMB      39              0.0000000000
      2940        39  POPC      C315           22.4806022065        8.5276974461        2.2128278771  MEMB      39              0.0000000000
      2941        39  POPC      H15X           23.2131866357        9.2441647797        2.6421468555  MEMB      39              0.0000000000
      2942        39  POPC      H15Y           21.4497649430        8.7593221442        2.5564050699  MEMB      39              0.0000000000
      2943        39  POPC      C316           22.5595356132        8.7206943319        0.7167238351  MEMB      39              0.0000000000
      2944        39  POPC      H16X           21.8458009084        8.0769920424        0.1594508705  MEMB      39              0.0000000000
      2945        39  POPC      H16Y           23.5311945147        8.3728855956        0.3053487599  MEMB      39              0.0000000000
      2946        39  POPC      H16Z           22.5294612227        9.7817772715        0.3888218675  MEMB      39              0.0000000000
      2947        40  POPC      N               2.4290966946       17.7547500839       20.0360480465  MEMB      40              0.0000000000
      2948        40  POPC      C12             1.5947687179       18.9487813716       20.6363626908  MEMB      40              0.0000000000
      2949        40  POPC      H12A            2.0108493417       19.1485442362       21.6127702916  MEMB      40              0.0000000000
      2950        40  POPC      H12B            0.5850107677       18.5680697090       20.6793431249  MEMB      40              0.0000000000
      2951        40  POPC      C13             2.2006125276       17.5039696788       18.6252088746  MEMB      40              0.0000000000
      2952        40  POPC      H13A            1.1574649548       17.6201733874       18.3707684248  MEMB      40              0.0000000000
      2953        40  POPC      H13B            2.4946717371       18.3980364782       18.0955167956  MEMB      40              0.0000000000
      2954        40  POPC      H13C            2.5853383804       16.5953256942       18.1861734072  MEMB      40              0.0000000000
      2955        40  POPC      C14             3.9313246343       18.0772612661       20.2773936289  MEMB      40              0.0000000000
      2956        40  POPC      H14A            4.0953300055       18.1240210287       21.3438436763  MEMB      40              0.0000000000
      2957        40  POPC      H14B            4.5790525988       17.3582733380       19.7979097265  MEMB      40              0.0000000000
      2958        40  POPC      H14C            4.0279649784       19.0928773999       19.9230145233  MEMB      40              0.0000000000
      2959        40  POPC      C15             1.9736762966       16.4937069027       20.7087794613  MEMB      40              0.0000000000
      2960        40  POPC      H15A            2.4403836574       15.6699578141       20.1891432944  MEMB      40              0.0000000000
      2961        40  POPC      H15B            0.8984915644       16.3940602414       20.7299555444  MEMB      40              0.0000000000
      2962        40  POPC      H15C            2.2048346859       16.5486624956       21.7623190192  MEMB      40              0.0000000000
      2963        40  POPC      C11             1.6154323687       20.3986158143       19.9502978831  MEMB      40              0.0000000000
      2964        40  POPC      H11A            2.6219843363       20.7800272677       20.2254332317  MEMB      40              0.0000000000
      2965        40  POPC      H11B            0.8113467320       20.9952353701       20.4317668756  MEMB      40              0.0000000000
      2966        40  POPC      P               1.9763807186       21.5178306593       17.7064586674  MEMB      40              0.0000000000
      2967        40  POPC      O13             1.7691757934       22.8143906865       18.4031776078  MEMB      40              0.0000000000
      2968        40  POPC      O14             1.4723497704       21.4029749692       16.2932603600  MEMB      40              0.0000000000
      2969        40  POPC      O12             1.3534067419       20.3866317328       18.5636413599  MEMB      40              0.0000000000
      2970        40  POPC      O11             3.6019915222       21.2686655433       17.7993714186  MEMB      40              0.0000000000
      2971        40  POPC      C1              4.2705198943       20.3771088333       16.9591099462  MEMB      40              0.0000000000
      2972        40  POPC      HA              3.6315249253       19.7600557233       16.2918379407  MEMB      40              0.0000000000
      2973        40  POPC      HB              4.7565039712       19.6907249779       17.6850697103  MEMB      40              0.0000000000
      2974        40  POPC      C2              5.2786426705       21.1563235266       16.0676324333  MEMB      40              0.0000000000
      2975        40  POPC      HS              5.7297302651       21.9188741850       16.7379736852  MEMB      40              0.0000000000
      2976        40  POPC      O21             4.5625501889       21.8072434216       14.9984178725  MEMB      40              0.0000000000
      2977        40  POPC      C21             4.9526327828       23.0474779113       14.7968154540  MEMB      40              0.0000000000
      2978        40  POPC      O22             5.6233044370       23.7489037425       15.5370696676  MEMB      40              0.0000000000
      2979        40  POPC      C22             4.2866194379       23.4076964349       13.4973798125  MEMB      40              0.0000000000
      2980        40  POPC      H2R             4.0806686346       24.4990109777       13.4667493057  MEMB      40              0.0000000000
      2981        40  POPC      H2S             3.2747596747       22.9504545798       13.4600890567  MEMB      40              0.0000000000
      2982        40  POPC      C3              6.3983458657       20.3153384156       15.4189528901  MEMB      40              0.0000000000
      2983        40  POPC      HX              7.0898417400       19.9975407609       16.2283719232  MEMB      40              0.0000000000
      2984        40  POPC      HY              7.0342711486       20.8829116631       14.7063655619  MEMB      40              0.0000000000
      2985        40  POPC      O31             5.7985273239       19.2244168641       14.6639284493  MEMB      40              0.0000000000
      2986        40  POPC      C31             6.3205256728       18.6426859327       13.5908425256  MEMB      40              0.0000000000
      2987        40  POPC      O32             7.2282522753       19.0802281995       12.8899883040  MEMB      40              0.0000000000
      2988        40  POPC      C32             5.2419017852       17.6153593738       13.0591783091  MEMB      40              0.0000000000
      2989        40  POPC      H2X             4.3066620895       17.8874663237       13.5935988557  MEMB      40              0.0000000000
      2990        40  POPC      H2Y             5.6128463731       16.6055398098       13.3366421895  MEMB      40              0.0000000000
      2991        40  POPC      C23             5.1418825775       22.9609452008       12.3013493787  MEMB      40              0.0000000000
      2992        40  POPC      H3R             5.1356190356       21.8499808979       12.2949902864  MEMB      40              0.0000000000
      2993        40  POPC      H3S             6.2348571916       23.1329524803       12.4020524151  MEMB      40              0.0000000000
      2994        40  POPC      C24             4.6009015192       23.6169197356       11.0393572452  MEMB      40              0.0000000000
      2995        40  POPC      H4R             4.9459291380       24.6681071294       11.1407597340  MEMB      40              0.0000000000
      2996        40  POPC      H4S             3.5057324847       23.5165235591       11.1969833070  MEMB      40              0.0000000000
      2997        40  POPC      C25             5.2859518432       23.0690488467        9.8054797861  MEMB      40              0.0000000000
      2998        40  POPC      H5R             6.3773299758       23.2387606040        9.6854275320  MEMB      40              0.0000000000
      2999        40  POPC      H5S             4.9996463276       23.6810434716        8.9235435713  MEMB      40              0.0000000000
      3000        40  POPC      C26             4.8929023988       21.5894691555        9.6502913097  MEMB      40              0.0000000000
      3001        40  POPC      H6R             4.0578391145       21.4289348643       10.3652866602  MEMB      40              0.0000000000
      3002        40  POPC      H6S             5.7445006679       20.9082344519        9.8624716938  MEMB      40              0.0000000000
      3003        40  POPC      C27             4.3706713862       21.2863317972        8.2749729659  MEMB      40              0.0000000000
      3004        40  POPC      H7R             3.5843725065       22.0103643957        7.9719350845  MEMB      40              0.0000000000
      3005        40  POPC      H7S             3.9894083961       20.2463954703        8.3615274960  MEMB      40              0.0000000000
      3006        40  POPC      C28             5.4118379322       21.3339783684        7.1495298880  MEMB      40              0.0000000000
      3007        40  POPC      H8R             5.9030735284       22.3302666988        7.1290719402  MEMB      40              0.0000000000
      3008        40  POPC      H8S             4.9374317170       21.1995871421        6.1539405031  MEMB      40              0.0000000000
      3009        40  POPC      C29             6.5555386415       20.3684667874        7.3578307958  MEMB      40              0.0000000000
      3010        40  POPC      H91             7.2798966070       20.7594099663        8.0875356190  MEMB      40              0.0000000000
      3011        40  POPC      C210            6.7679345732       19.1804545617        6.7503437658  MEMB      40              0.0000000000
      3012        40  POPC      H101            7.6925043007       18.5951979322        6.8627974608  MEMB      40              0.0000000000
      3013        40  POPC      C211            5.8898481348       18.4581136511        5.7531302822  MEMB      40              0.0000000000
      3014        40  POPC      H11R            4.8702210373       18.8988358713        5.7742367145  MEMB      40              0.0000000000
      3015        40  POPC      H11S            5.8431473216       17.3793869540        6.0148344051  MEMB      40              0.0000000000
      3016        40  POPC      C212            6.5097648975       18.4585919205        4.2752432767  MEMB      40              0.0000000000
      3017        40  POPC      H12R            5.9006122874       17.7585327232        3.6643658588  MEMB      40              0.0000000000
      3018        40  POPC      H12S            7.5619017703       18.1163490362        4.3762332033  MEMB      40              0.0000000000
      3019        40  POPC      C213            6.3711123998       19.8262081866        3.5834702922  MEMB      40              0.0000000000
      3020        40  POPC      H13R            6.7108571090       20.6372640885        4.2625009191  MEMB      40              0.0000000000
      3021        40  POPC      H13S            5.2616490217       19.8841240335        3.5758561705  MEMB      40              0.0000000000
      3022        40  POPC      C214            7.0099410121       19.9758207776        2.2872024983  MEMB      40              0.0000000000
      3023        40  POPC      H14R            8.0891035700       20.1419356371        2.4924715705  MEMB      40              0.0000000000
      3024        40  POPC      H14S            6.6704490597       20.9400940629        1.8521811551  MEMB      40              0.0000000000
      3025        40  POPC      C215            6.8162829112       18.8153868724        1.3237549380  MEMB      40              0.0000000000
      3026        40  POPC      H15R            7.1856810615       17.9021991227        1.8375195896  MEMB      40              0.0000000000
      3027        40  POPC      H15S            7.5105333930       19.0117957598        0.4789123485  MEMB      40              0.0000000000
      3028        40  POPC      C216            5.4130023335       18.6808526087        0.7153523688  MEMB      40              0.0000000000
      3029        40  POPC      H16R            5.1485707089       19.5064452112        0.0205187202  MEMB      40              0.0000000000
      3030        40  POPC      H16S            4.6209333791       18.6957161641        1.4942800285  MEMB      40              0.0000000000
      3031        40  POPC      C217            5.1712564833       17.3548156122       -0.1256519761  MEMB      40              0.0000000000
      3032        40  POPC      H17R            5.9250709313       17.3658974775       -0.9417159639  MEMB      40              0.0000000000
      3033        40  POPC      H17S            4.1572480434       17.5715692604       -0.5245565843  MEMB      40              0.0000000000
      3034        40  POPC      C218            5.0349856851       16.0948107003        0.5743740406  MEMB      40              0.0000000000
      3035        40  POPC      H18R            4.2146949439       16.2101794241        1.3147336136  MEMB      40              0.0000000000
      3036        40  POPC      H18S            5.9226364931       15.6730424470        1.0925515777  MEMB      40              0.0000000000
      3037        40  POPC      H18T            4.6794532352       15.2882806421       -0.1019601515  MEMB      40              0.0000000000
      3038        40  POPC      C33             5.1442060464       17.4847308664       11.5588837727  MEMB      40              0.0000000000
      3039        40  POPC      H3X             6.1109103981       17.4305696031       11.0140261809  MEMB      40              0.0000000000
      3040        40  POPC      H3Y             4.4589219494       18.3205791624       11.3018541250  MEMB      40              0.0000000000
      3041        40  POPC      C34             4.3537683553       16.2161184936       11.0609631140  MEMB      40              0.0000000000
      3042        40  POPC      H4X             3.5178772634       15.9222864360       11.7312384280  MEMB      40              0.0000000000
      3043        40  POPC      H4Y             5.0065375596       15.3222115759       11.1565881301  MEMB      40              0.0000000000
      3044        40  POPC      C35             3.9786380300       16.2967895020        9.6007257919  MEMB      40              0.0000000000
      3045        40  POPC      H5X             4.9243808393       16.6686187605        9.1516894470  MEMB      40              0.0000000000
      3046        40  POPC      H5Y             3.1626459129       17.0144803381        9.3696477972  MEMB      40              0.0000000000
      3047        40  POPC      C36             3.4987480641       14.9798969549        8.8787446352  MEMB      40              0.0000000000
      3048        40  POPC      H6X             2.6352999942       14.5599765082        9.4377127074  MEMB      40              0.0000000000
      3049        40  POPC      H6Y             4.3935093510       14.3315363273        8.9942947802  MEMB      40              0.0000000000
      3050        40  POPC      C37             3.1164900230       15.2901962747        7.4214821274  MEMB      40              0.0000000000
      3051        40  POPC      H7X             2.9573715275       14.2864681116        6.9725586559  MEMB      40              0.0000000000
      3052        40  POPC      H7Y             4.0183647327       15.6649649445        6.8918672221  MEMB      40              0.0000000000
      3053        40  POPC      C38             1.7021145827       15.9109026704        7.0191249594  MEMB      40              0.0000000000
      3054        40  POPC      H8X             1.5896516052       16.8575470179        7.5896839192  MEMB      40              0.0000000000
      3055        40  POPC      H8Y             0.9311385081       15.1831975553        7.3513329473  MEMB      40              0.0000000000
      3056        40  POPC      C39             1.5620669632       16.0915179510        5.4911882831  MEMB      40              0.0000000000
      3057        40  POPC      H9X             1.3524192878       15.1078940982        5.0191145223  MEMB      40              0.0000000000
      3058        40  POPC      H9Y             2.5300156858       16.4942351296        5.1234718524  MEMB      40              0.0000000000
      3059        40  POPC      C310            0.4183639626       17.0256753888        5.1221858379  MEMB      40              0.0000000000
      3060        40  POPC      H10X           -0.4906012619       16.5034124187        5.4900780154  MEMB      40              0.0000000000
      3061        40  POPC      H10Y            0.2632502337       17.1039741059        4.0248570550  MEMB      40              0.0000000000
      3062        40  POPC      C311            0.3557761367       18.4619574098        5.7967414040  MEMB      40              0.0000000000
      3063        40  POPC      H11X            0.3556476553       18.2341517086        6.8841351363  MEMB      40              0.0000000000
      3064        40  POPC      H11Y           -0.6456030900       18.8852511421        5.5678669742  MEMB      40              0.0000000000
      3065        40  POPC      C312            1.5490420547       19.4570385900        5.5544738493  MEMB      40              0.0000000000
      3066        40  POPC      H12X            2.5087575461       18.9016940678        5.4847636028  MEMB      40              0.0000000000
      3067        40  POPC      H12Y            1.7060731942       20.1167487391        6.4344993731  MEMB      40              0.0000000000
      3068        40  POPC      C313            1.3560844289       20.4973716847        4.4510836992  MEMB      40              0.0000000000
      3069        40  POPC      H13X            0.3342181280       20.9277304499        4.5210961879  MEMB      40              0.0000000000
      3070        40  POPC      H13Y            1.3407559840       19.9891369129        3.4632660601  MEMB      40              0.0000000000
      3071        40  POPC      C314            2.3728385940       21.6649821157        4.4079492404  MEMB      40              0.0000000000
      3072        40  POPC      H14X            3.4395972233       21.3554302242        4.3850444111  MEMB      40              0.0000000000
      3073        40  POPC      H14Y            2.2227469937       22.2747828357        5.3244300064  MEMB      40              0.0000000000
      3074        40  POPC      C315            2.1026563570       22.5490776417        3.1227135476  MEMB      40              0.0000000000
      3075        40  POPC      H15X            2.5162808077       23.5558261752        3.3456329566  MEMB      40              0.0000000000
      3076        40  POPC      H15Y            1.0143295498       22.7398611738        3.0066648353  MEMB      40              0.0000000000
      3077        40  POPC      C316            2.6974293963       22.0733722472        1.7656153172  MEMB      40              0.0000000000
      3078        40  POPC      H16X            2.4819483242       22.6215663118        0.8236109025  MEMB      40              0.0000000000
      3079        40  POPC      H16Y            2.4787207382       21.0126714169        1.5178228098  MEMB      40              0.0000000000
      3080        40  POPC      H16Z            3.8013878847       22.1761782533        1.8365196369  MEMB      40              0.0000000000
      3081        41  POPC      N              18.1961352654       18.7774435171       20.9505068603  MEMB      41              0.0000000000
      3082        41  POPC      C12            18.6239101881       20.1669043847       20.4031615252  MEMB      41              0.0000000000
      3083        41  POPC      H12A           19.6848347004       20.3068274265       20.5489718233  MEMB      41              0.0000000000
      3084        41  POPC      H12B           18.0408420907       20.9004861133       20.9400874385  MEMB      41              0.0000000000
      3085        41  POPC      C13            19.0000718728       17.6486478215       20.4768392968  MEMB      41              0.0000000000
      3086        41  POPC      H13A           18.4703246395       16.7309110471       20.6854709764  MEMB      41              0.0000000000
      3087        41  POPC      H13B           19.0794035781       17.7552279749       19.4050430365  MEMB      41              0.0000000000
      3088        41  POPC      H13C           19.9791541878       17.7035611861       20.9293680606  MEMB      41              0.0000000000
      3089        41  POPC      C14            18.2733634712       18.7036983238       22.4475631474  MEMB      41              0.0000000000
      3090        41  POPC      H14A           17.3896681771       19.0811014200       22.9405638208  MEMB      41              0.0000000000
      3091        41  POPC      H14B           18.3766869439       17.6969452308       22.8246206749  MEMB      41              0.0000000000
      3092        41  POPC      H14C           19.1921758657       19.1880359773       22.7435377340  MEMB      41              0.0000000000
      3093        41  POPC      C15            16.7783298448       18.3854898350       20.6915284302  MEMB      41              0.0000000000
      3094        41  POPC      H15A           16.6642433135       18.1301233057       19.6483736083  MEMB      41              0.0000000000
      3095        41  POPC      H15B           16.1571719008       19.2614354245       20.8067777874  MEMB      41              0.0000000000
      3096        41  POPC      H15C           16.5024267980       17.5638738429       21.3359077466  MEMB      41              0.0000000000
      3097        41  POPC      C11            18.2613815376       20.4831168274       18.9546695785  MEMB      41              0.0000000000
      3098        41  POPC      H11A           18.8672908177       21.4039498038       18.8158837891  MEMB      41              0.0000000000
      3099        41  POPC      H11B           17.1774800997       20.6776711579       18.8076078684  MEMB      41              0.0000000000
      3100        41  POPC      P              19.8400475310       19.5938901126       17.0146920033  MEMB      41              0.0000000000
      3101        41  POPC      O13            19.6630082499       18.4747558409       16.0011277364  MEMB      41              0.0000000000
      3102        41  POPC      O14            21.1402307214       19.7022941769       17.7076187909  MEMB      41              0.0000000000
      3103        41  POPC      O12            18.6662974366       19.4809386812       18.0128110942  MEMB      41              0.0000000000
      3104        41  POPC      O11            19.5186325056       21.0383021678       16.3394815367  MEMB      41              0.0000000000
      3105        41  POPC      C1             20.0605328830       21.3901476107       15.1420776015  MEMB      41              0.0000000000
      3106        41  POPC      HA             19.7299937663       20.6457367017       14.3864868826  MEMB      41              0.0000000000
      3107        41  POPC      HB             21.1644436186       21.5115346537       15.1109725605  MEMB      41              0.0000000000
      3108        41  POPC      C2             19.4622428381       22.7397898271       14.6783974302  MEMB      41              0.0000000000
      3109        41  POPC      HS             19.8497182752       23.5948994964       15.2725109754  MEMB      41              0.0000000000
      3110        41  POPC      O21            18.0443069086       22.6147353451       14.5536863312  MEMB      41              0.0000000000
      3111        41  POPC      C21            17.4102014029       22.7863888691       15.7926154700  MEMB      41              0.0000000000
      3112        41  POPC      O22            17.9682711476       23.2897670312       16.7524821069  MEMB      41              0.0000000000
      3113        41  POPC      C22            15.9571349372       22.2601402447       15.8261363961  MEMB      41              0.0000000000
      3114        41  POPC      H2R            15.2111851901       23.0487335250       16.0627802595  MEMB      41              0.0000000000
      3115        41  POPC      H2S            16.0414823151       21.5749564177       16.6966129505  MEMB      41              0.0000000000
      3116        41  POPC      C3             20.0220839581       23.1337429028       13.2482088996  MEMB      41              0.0000000000
      3117        41  POPC      HX             21.1152273314       22.9522431352       13.1681058087  MEMB      41              0.0000000000
      3118        41  POPC      HY             19.8083873442       24.2203693686       13.1593401183  MEMB      41              0.0000000000
      3119        41  POPC      O31            19.4753906432       22.3388334387       12.2037394697  MEMB      41              0.0000000000
      3120        41  POPC      C31            19.6612189831       22.7742221056       10.9909723334  MEMB      41              0.0000000000
      3121        41  POPC      O32            20.0697147019       23.8584924960       10.6398066396  MEMB      41              0.0000000000
      3122        41  POPC      C32            19.1682443988       21.8108590480        9.9554391305  MEMB      41              0.0000000000
      3123        41  POPC      H2X            19.0868928698       22.2848849814        8.9539397074  MEMB      41              0.0000000000
      3124        41  POPC      H2Y            18.1382723159       21.5580131078       10.2864188157  MEMB      41              0.0000000000
      3125        41  POPC      C23            15.5117086692       21.7300568524       14.4570909747  MEMB      41              0.0000000000
      3126        41  POPC      H3R            15.7486438649       22.4883231947       13.6804217490  MEMB      41              0.0000000000
      3127        41  POPC      H3S            14.4178362417       21.5572797060       14.5460417627  MEMB      41              0.0000000000
      3128        41  POPC      C24            16.0466958507       20.3265699594       14.0250732831  MEMB      41              0.0000000000
      3129        41  POPC      H4R            15.3341250879       19.5328179922       14.3357529241  MEMB      41              0.0000000000
      3130        41  POPC      H4S            16.9310988144       20.1052141320       14.6600173810  MEMB      41              0.0000000000
      3131        41  POPC      C25            16.1688793704       19.9276406037       12.5554173260  MEMB      41              0.0000000000
      3132        41  POPC      H5R            16.3543732254       18.8383524381       12.4398132732  MEMB      41              0.0000000000
      3133        41  POPC      H5S            16.9602484126       20.5733302805       12.1182208196  MEMB      41              0.0000000000
      3134        41  POPC      C26            14.8503400842       20.0841372144       11.7973214865  MEMB      41              0.0000000000
      3135        41  POPC      H6R            14.8297837599       21.1655847439       11.5436095415  MEMB      41              0.0000000000
      3136        41  POPC      H6S            13.9730886604       19.8879347147       12.4502035179  MEMB      41              0.0000000000
      3137        41  POPC      C27            14.8022841973       19.0627718175       10.6683856864  MEMB      41              0.0000000000
      3138        41  POPC      H7R            13.7933617089       19.0745337630       10.2033505609  MEMB      41              0.0000000000
      3139        41  POPC      H7S            14.9863414134       18.0243368308       11.0178090254  MEMB      41              0.0000000000
      3140        41  POPC      C28            15.8286596343       19.4439527780        9.5934759165  MEMB      41              0.0000000000
      3141        41  POPC      H8R            16.0786545881       18.4738698267        9.1130979050  MEMB      41              0.0000000000
      3142        41  POPC      H8S            16.8079316766       19.6905823446       10.0566401941  MEMB      41              0.0000000000
      3143        41  POPC      C29            15.4001495864       20.4560275240        8.5936092671  MEMB      41              0.0000000000
      3144        41  POPC      H91            15.1674104682       21.4152468995        9.0791304247  MEMB      41              0.0000000000
      3145        41  POPC      C210           15.2519709069       20.3372633044        7.2181089519  MEMB      41              0.0000000000
      3146        41  POPC      H101           14.8511071562       21.1796236003        6.6352389478  MEMB      41              0.0000000000
      3147        41  POPC      C211           15.5918963744       19.0168358128        6.4410012043  MEMB      41              0.0000000000
      3148        41  POPC      H11R           14.7566975292       18.2945728559        6.5638845774  MEMB      41              0.0000000000
      3149        41  POPC      H11S           16.4476211887       18.5348940024        6.9604125714  MEMB      41              0.0000000000
      3150        41  POPC      C212           15.8399609814       19.1872034959        4.9635094645  MEMB      41              0.0000000000
      3151        41  POPC      H12R           16.5429258260       19.9986261439        4.6775810810  MEMB      41              0.0000000000
      3152        41  POPC      H12S           14.8295082726       19.3072220888        4.5175252395  MEMB      41              0.0000000000
      3153        41  POPC      C213           16.4185707207       17.9389398926        4.3932902221  MEMB      41              0.0000000000
      3154        41  POPC      H13R           15.7308359646       17.1045292005        4.6484386246  MEMB      41              0.0000000000
      3155        41  POPC      H13S           17.4133974848       17.6271825080        4.7772796213  MEMB      41              0.0000000000
      3156        41  POPC      C214           16.6793771705       18.1114246521        2.8564380020  MEMB      41              0.0000000000
      3157        41  POPC      H14R           17.6061702872       18.7094061992        2.7230458479  MEMB      41              0.0000000000
      3158        41  POPC      H14S           15.9097086475       18.6961219971        2.3086602231  MEMB      41              0.0000000000
      3159        41  POPC      C215           17.0094775471       16.7215166103        2.1495647780  MEMB      41              0.0000000000
      3160        41  POPC      H15R           16.9289309354       16.9460566226        1.0644770204  MEMB      41              0.0000000000
      3161        41  POPC      H15S           16.3103630822       15.9980387954        2.6208834823  MEMB      41              0.0000000000
      3162        41  POPC      C216           18.4645389442       16.1982997555        2.3803395489  MEMB      41              0.0000000000
      3163        41  POPC      H16R           18.5504378265       15.1382798991        2.0589360474  MEMB      41              0.0000000000
      3164        41  POPC      H16S           18.7636368546       16.2531170945        3.4489158227  MEMB      41              0.0000000000
      3165        41  POPC      C217           19.5372094416       16.8305564536        1.6049921660  MEMB      41              0.0000000000
      3166        41  POPC      H17R           19.6116912302       17.9106962509        1.8541339826  MEMB      41              0.0000000000
      3167        41  POPC      H17S           19.4483093578       16.6598034751        0.5107988468  MEMB      41              0.0000000000
      3168        41  POPC      C218           20.9636754350       16.2511118944        1.9205742613  MEMB      41              0.0000000000
      3169        41  POPC      H18R           21.0428528533       15.2389868767        1.4692933779  MEMB      41              0.0000000000
      3170        41  POPC      H18S           21.0308543712       16.0962737015        3.0186793924  MEMB      41              0.0000000000
      3171        41  POPC      H18T           21.7601086479       16.9381449406        1.5628036429  MEMB      41              0.0000000000
      3172        41  POPC      C33            20.0005577802       20.5249498441        9.8834132029  MEMB      41              0.0000000000
      3173        41  POPC      H3X            19.3148410838       19.6539483809        9.9573724152  MEMB      41              0.0000000000
      3174        41  POPC      H3Y            20.5771539487       20.6446687590       10.8254990107  MEMB      41              0.0000000000
      3175        41  POPC      C34            20.9986601629       20.2887485088        8.7352288307  MEMB      41              0.0000000000
      3176        41  POPC      H4X            21.7600769876       19.5453152723        9.0544035917  MEMB      41              0.0000000000
      3177        41  POPC      H4Y            21.6231311171       21.1902367828        8.5572507493  MEMB      41              0.0000000000
      3178        41  POPC      C35            20.4275752544       19.6672524953        7.4469348607  MEMB      41              0.0000000000
      3179        41  POPC      H5X            19.9814721800       18.7067749291        7.7827850511  MEMB      41              0.0000000000
      3180        41  POPC      H5Y            21.2504212359       19.7161526076        6.7020494682  MEMB      41              0.0000000000
      3181        41  POPC      C36            19.2624814422       20.4882912904        6.8236824665  MEMB      41              0.0000000000
      3182        41  POPC      H6X            18.5354330538       20.7020032751        7.6361162960  MEMB      41              0.0000000000
      3183        41  POPC      H6Y            18.6998869192       19.8200641342        6.1371832913  MEMB      41              0.0000000000
      3184        41  POPC      C37            19.7039272455       21.7806809368        6.0712452789  MEMB      41              0.0000000000
      3185        41  POPC      H7X            20.4392125699       21.5434691624        5.2728678481  MEMB      41              0.0000000000
      3186        41  POPC      H7Y            20.2862840675       22.3016640265        6.8610292864  MEMB      41              0.0000000000
      3187        41  POPC      C38            18.5953682988       22.7036157248        5.6668625945  MEMB      41              0.0000000000
      3188        41  POPC      H8X            18.4270529773       23.4334450850        6.4874350669  MEMB      41              0.0000000000
      3189        41  POPC      H8Y            17.7406317257       22.0067327748        5.5323241006  MEMB      41              0.0000000000
      3190        41  POPC      C39            18.9176415760       23.4152489508        4.3071827236  MEMB      41              0.0000000000
      3191        41  POPC      H9X            19.9381379269       23.8542784707        4.3198758174  MEMB      41              0.0000000000
      3192        41  POPC      H9Y            18.2000520016       24.2466590829        4.1394211811  MEMB      41              0.0000000000
      3193        41  POPC      C310           18.8090903136       22.3973563074        3.1930593868  MEMB      41              0.0000000000
      3194        41  POPC      H10X           17.8034474822       21.9296770459        3.1276417961  MEMB      41              0.0000000000
      3195        41  POPC      H10Y           19.5163092990       21.5522279317        3.3341988193  MEMB      41              0.0000000000
      3196        41  POPC      C311           19.0664272797       23.0668535535        1.8654031588  MEMB      41              0.0000000000
      3197        41  POPC      H11X           20.1308221971       23.3806773061        1.8115590894  MEMB      41              0.0000000000
      3198        41  POPC      H11Y           18.3064479627       23.8714182665        1.7683038086  MEMB      41              0.0000000000
      3199        41  POPC      C312           18.8527100202       22.0675491190        0.6660832831  MEMB      41              0.0000000000
      3200        41  POPC      H12X           19.1923519965       22.6244425056       -0.2332699327  MEMB      41              0.0000000000
      3201        41  POPC      H12Y           17.7644653400       21.8499529288        0.7180073417  MEMB      41              0.0000000000
      3202        41  POPC      C313           19.5096242117       20.6844497049        0.8244922062  MEMB      41              0.0000000000
      3203        41  POPC      H13X           19.0763128995       20.0982822250       -0.0139404076  MEMB      41              0.0000000000
      3204        41  POPC      H13Y           19.0868327409       20.3230071737        1.7862245825  MEMB      41              0.0000000000
      3205        41  POPC      C314           21.0359004133       20.7232643182        1.0379488356  MEMB      41              0.0000000000
      3206        41  POPC      H14X           21.2768414178       19.6402139768        1.0951346883  MEMB      41              0.0000000000
      3207        41  POPC      H14Y           21.4918784255       21.2409931896        1.9087885623  MEMB      41              0.0000000000
      3208        41  POPC      C315           21.8870139038       21.2576527000       -0.1570130108  MEMB      41              0.0000000000
      3209        41  POPC      H15X           21.6509230902       22.2996245485       -0.4617690671  MEMB      41              0.0000000000
      3210        41  POPC      H15Y           21.7752759353       20.6051484313       -1.0492431363  MEMB      41              0.0000000000
      3211        41  POPC      C316           23.3973881815       21.2087039848        0.1929941191  MEMB      41              0.0000000000
      3212        41  POPC      H16X           23.9796476923       21.7878073593       -0.5552937354  MEMB      41              0.0000000000
      3213        41  POPC      H16Y           23.7617247475       20.1592518296        0.2081569867  MEMB      41              0.0000000000
      3214        41  POPC      H16Z           23.4906059348       21.8326509063        1.1075009463  MEMB      41              0.0000000000
      3215        42  POPC      N               0.0359287421      -20.8442139723       20.4322134243  MEMB      42              0.0000000000
      3216        42  POPC      C12            -0.8645091842      -21.9989698836       20.4292275737  MEMB      42              0.0000000000
      3217        42  POPC      H12A           -1.8655378087      -21.7549566697       20.7529546082  MEMB      42              0.0000000000
      3218        42  POPC      H12B           -0.3799286251      -22.7793881883       20.9971438829  MEMB      42              0.0000000000
      3219        42  POPC      C13             0.3079835096      -20.3338765029       21.8435960491  MEMB      42              0.0000000000
      3220        42  POPC      H13A            0.7514713452      -19.3492028277       21.8319239333  MEMB      42              0.0000000000
      3221        42  POPC      H13B           -0.5161308875      -20.4611257782       22.5299218479  MEMB      42              0.0000000000
      3222        42  POPC      H13C            1.1292812506      -20.9682991130       22.1425575757  MEMB      42              0.0000000000
      3223        42  POPC      C14             1.3489089754      -21.0679022479       19.7404733070  MEMB      42              0.0000000000
      3224        42  POPC      H14A            1.7568425901      -21.9945401300       20.1164154450  MEMB      42              0.0000000000
      3225        42  POPC      H14B            1.0757562482      -21.3698163756       18.7401555792  MEMB      42              0.0000000000
      3226        42  POPC      H14C            1.9979156639      -20.2289446102       19.9437965778  MEMB      42              0.0000000000
      3227        42  POPC      C15            -0.6406599132      -19.6645175272       19.6938393882  MEMB      42              0.0000000000
      3228        42  POPC      H15A           -1.3890006256      -19.3435535803       20.4033239582  MEMB      42              0.0000000000
      3229        42  POPC      H15B           -1.0055132687      -19.9254583090       18.7113975644  MEMB      42              0.0000000000
      3230        42  POPC      H15C            0.0878531484      -18.8741104778       19.5893153885  MEMB      42              0.0000000000
      3231        42  POPC      C11            -1.0742715410      -22.7799931505       19.0981166753  MEMB      42              0.0000000000
      3232        42  POPC      H11A           -1.9029770607      -23.4729783160       19.3576155697  MEMB      42              0.0000000000
      3233        42  POPC      H11B           -0.0924933637      -23.2520586116       18.8799729526  MEMB      42              0.0000000000
      3234        42  POPC      P              -2.9043358410      -21.5805574524       17.5289131845  MEMB      42              0.0000000000
      3235        42  POPC      O13            -2.7948642492      -20.8142296350       16.2192708923  MEMB      42              0.0000000000
      3236        42  POPC      O14            -3.5110684227      -20.8454025673       18.7193711267  MEMB      42              0.0000000000
      3237        42  POPC      O12            -1.4814193649      -22.0572547519       17.9592354868  MEMB      42              0.0000000000
      3238        42  POPC      O11            -3.6541621576      -22.9230730089       17.3357428974  MEMB      42              0.0000000000
      3239        42  POPC      C1             -3.2345018747      -23.9676836484       16.4715282748  MEMB      42              0.0000000000
      3240        42  POPC      HA             -3.3947809307      -24.9182318117       17.0238779283  MEMB      42              0.0000000000
      3241        42  POPC      HB             -2.1382837989      -23.8781591920       16.3146454668  MEMB      42              0.0000000000
      3242        42  POPC      C2             -3.8445690119      -23.9538989732       14.9943786867  MEMB      42              0.0000000000
      3243        42  POPC      HS             -3.7813320179      -25.0167122589       14.6769670377  MEMB      42              0.0000000000
      3244        42  POPC      O21            -3.1685899404      -23.1019514518       14.0909469295  MEMB      42              0.0000000000
      3245        42  POPC      C21            -2.1232567274      -23.5631933256       13.3989123753  MEMB      42              0.0000000000
      3246        42  POPC      O22            -1.6304351556      -24.6155978775       13.6571082556  MEMB      42              0.0000000000
      3247        42  POPC      C22            -1.8283620857      -22.5416348471       12.3223764524  MEMB      42              0.0000000000
      3248        42  POPC      H2R            -2.8343503563      -22.4292139637       11.8644788763  MEMB      42              0.0000000000
      3249        42  POPC      H2S            -0.9916529787      -22.8273816738       11.6496297906  MEMB      42              0.0000000000
      3250        42  POPC      C3             -5.3362397771      -23.5482646946       15.0794460839  MEMB      42              0.0000000000
      3251        42  POPC      HX             -5.4662885519      -22.5178024049       15.4738518646  MEMB      42              0.0000000000
      3252        42  POPC      HY             -5.9660429967      -24.1545680375       15.7650589328  MEMB      42              0.0000000000
      3253        42  POPC      O31            -5.9947488176      -23.7758022227       13.8250346142  MEMB      42              0.0000000000
      3254        42  POPC      C31            -6.3716608006      -22.7041391893       13.1387459163  MEMB      42              0.0000000000
      3255        42  POPC      O32            -6.0388769099      -21.5536320665       13.4531173571  MEMB      42              0.0000000000
      3256        42  POPC      C32            -7.3400999077      -23.0347219706       12.1005941986  MEMB      42              0.0000000000
      3257        42  POPC      H2X            -8.0695788430      -22.2028188149       12.0000049388  MEMB      42              0.0000000000
      3258        42  POPC      H2Y            -7.9075197937      -23.9732652544       12.2780547389  MEMB      42              0.0000000000
      3259        42  POPC      C23            -1.3499416159      -21.2736831743       12.9997368716  MEMB      42              0.0000000000
      3260        42  POPC      H3R            -0.6146664030      -21.5071463606       13.7992280933  MEMB      42              0.0000000000
      3261        42  POPC      H3S            -2.1843167329      -20.7832270754       13.5452570636  MEMB      42              0.0000000000
      3262        42  POPC      C24            -0.7070994278      -20.2745745835       11.9763247123  MEMB      42              0.0000000000
      3263        42  POPC      H4R            -0.0106448660      -20.9373652817       11.4195655364  MEMB      42              0.0000000000
      3264        42  POPC      H4S            -0.2323807562      -19.4874261375       12.6003121287  MEMB      42              0.0000000000
      3265        42  POPC      C25            -1.6566065074      -19.6733505883       11.0067486293  MEMB      42              0.0000000000
      3266        42  POPC      H5R            -2.2459663165      -20.5592769416       10.6872015852  MEMB      42              0.0000000000
      3267        42  POPC      H5S            -1.0893424848      -19.3967842069       10.0923945269  MEMB      42              0.0000000000
      3268        42  POPC      C26            -2.3703014191      -18.4086724168       11.5340273449  MEMB      42              0.0000000000
      3269        42  POPC      H6R            -1.6622925862      -17.5525281592       11.5261866262  MEMB      42              0.0000000000
      3270        42  POPC      H6S            -2.5096602261      -18.6067268138       12.6183125228  MEMB      42              0.0000000000
      3271        42  POPC      C27            -3.5908968993      -17.9448769841       10.7715274274  MEMB      42              0.0000000000
      3272        42  POPC      H7R            -3.0512434960      -17.7251999481        9.8255693336  MEMB      42              0.0000000000
      3273        42  POPC      H7S            -4.0809028533      -17.0187461285       11.1409822499  MEMB      42              0.0000000000
      3274        42  POPC      C28            -4.6031554274      -19.0717382002       10.5212442793  MEMB      42              0.0000000000
      3275        42  POPC      H8R            -4.8144803139      -19.3908974475       11.5642205225  MEMB      42              0.0000000000
      3276        42  POPC      H8S            -4.2605542646      -19.9503002149        9.9338137531  MEMB      42              0.0000000000
      3277        42  POPC      C29            -5.7909773735      -18.5230329207        9.8397249547  MEMB      42              0.0000000000
      3278        42  POPC      H91            -6.4703816180      -18.0600034063       10.5704881213  MEMB      42              0.0000000000
      3279        42  POPC      C210           -6.1183298493      -18.6442159943        8.5554048716  MEMB      42              0.0000000000
      3280        42  POPC      H101           -7.1209515412      -18.2391756912        8.3536816723  MEMB      42              0.0000000000
      3281        42  POPC      C211           -5.3053164021      -19.3675236248        7.5186057569  MEMB      42              0.0000000000
      3282        42  POPC      H11R           -5.9991381393      -19.8847418422        6.8218868297  MEMB      42              0.0000000000
      3283        42  POPC      H11S           -4.6024840011      -20.1347941550        7.9080201746  MEMB      42              0.0000000000
      3284        42  POPC      C212           -4.5038500259      -18.2520584265        6.8005969011  MEMB      42              0.0000000000
      3285        42  POPC      H12R           -3.8473904729      -17.7408091350        7.5368067677  MEMB      42              0.0000000000
      3286        42  POPC      H12S           -5.1169272981      -17.4622815296        6.3161282830  MEMB      42              0.0000000000
      3287        42  POPC      C213           -3.4379540447      -18.7533767007        5.9192383295  MEMB      42              0.0000000000
      3288        42  POPC      H13R           -3.0121249553      -19.6698608803        6.3808084853  MEMB      42              0.0000000000
      3289        42  POPC      H13S           -2.6280852194      -18.0226799503        5.7082504001  MEMB      42              0.0000000000
      3290        42  POPC      C214           -3.9980515311      -19.2229468687        4.5468229518  MEMB      42              0.0000000000
      3291        42  POPC      H14R           -4.8128695006      -19.8862363355        4.9079870270  MEMB      42              0.0000000000
      3292        42  POPC      H14S           -3.2486769743      -19.8464977053        4.0139589128  MEMB      42              0.0000000000
      3293        42  POPC      C215           -4.7610433782      -18.3681997475        3.5502902994  MEMB      42              0.0000000000
      3294        42  POPC      H15R           -4.4075690159      -17.3659191735        3.2265465769  MEMB      42              0.0000000000
      3295        42  POPC      H15S           -5.7303176705      -18.1145898324        4.0304051769  MEMB      42              0.0000000000
      3296        42  POPC      C216           -4.9979605892      -19.0722345366        2.1599779152  MEMB      42              0.0000000000
      3297        42  POPC      H16R           -4.0059215604      -19.0592416756        1.6599662183  MEMB      42              0.0000000000
      3298        42  POPC      H16S           -5.5731800169      -18.3709414594        1.5183925339  MEMB      42              0.0000000000
      3299        42  POPC      C217           -5.6057481989      -20.4685447202        2.2085168441  MEMB      42              0.0000000000
      3300        42  POPC      H17R           -6.3926170906      -20.5339519990        2.9901053440  MEMB      42              0.0000000000
      3301        42  POPC      H17S           -4.7539364629      -21.1273360035        2.4818879114  MEMB      42              0.0000000000
      3302        42  POPC      C218           -6.2113420232      -20.9475168134        0.9153328047  MEMB      42              0.0000000000
      3303        42  POPC      H18R           -6.9561520824      -20.1865112847        0.5983946683  MEMB      42              0.0000000000
      3304        42  POPC      H18S           -6.6773148742      -21.9485034558        1.0386863186  MEMB      42              0.0000000000
      3305        42  POPC      H18T           -5.4189201425      -21.1355772438        0.1596718610  MEMB      42              0.0000000000
      3306        42  POPC      C33            -6.5759391556      -23.1447878781       10.8083105327  MEMB      42              0.0000000000
      3307        42  POPC      H3X            -5.8024665039      -22.3973559094       10.5300899661  MEMB      42              0.0000000000
      3308        42  POPC      H3Y            -7.3280443351      -23.3108352206       10.0076310960  MEMB      42              0.0000000000
      3309        42  POPC      C34            -5.6948240763      -24.4862844207       10.6883376941  MEMB      42              0.0000000000
      3310        42  POPC      H4X            -6.3241657393      -25.2581142316       11.1808098871  MEMB      42              0.0000000000
      3311        42  POPC      H4Y            -4.6958882743      -24.2468679885       11.1115728776  MEMB      42              0.0000000000
      3312        42  POPC      C35            -5.5068273973      -24.9264202937        9.1973195223  MEMB      42              0.0000000000
      3313        42  POPC      H5X            -6.5241400989      -25.1833925095        8.8321327697  MEMB      42              0.0000000000
      3314        42  POPC      H5Y            -4.9501797384      -25.8859189831        9.2591794452  MEMB      42              0.0000000000
      3315        42  POPC      C36            -4.6910250514      -24.0400005539        8.1938618710  MEMB      42              0.0000000000
      3316        42  POPC      H6X            -3.8018935346      -23.6971690509        8.7650298137  MEMB      42              0.0000000000
      3317        42  POPC      H6Y            -5.2679762602      -23.1534424405        7.8540628878  MEMB      42              0.0000000000
      3318        42  POPC      C37            -4.3340207207      -24.9827519994        7.0776972816  MEMB      42              0.0000000000
      3319        42  POPC      H7X            -5.3164481235      -25.2707238460        6.6461547961  MEMB      42              0.0000000000
      3320        42  POPC      H7Y            -3.8202646729      -25.8572462871        7.5311677420  MEMB      42              0.0000000000
      3321        42  POPC      C38            -3.4325368645      -24.3363774297        5.9832542418  MEMB      42              0.0000000000
      3322        42  POPC      H8X            -3.9470670992      -23.5675649576        5.3680256440  MEMB      42              0.0000000000
      3323        42  POPC      H8Y            -3.1343500212      -25.1659629612        5.3070940976  MEMB      42              0.0000000000
      3324        42  POPC      C39            -2.1591819059      -23.7095173120        6.5782208620  MEMB      42              0.0000000000
      3325        42  POPC      H9X            -1.5004473335      -24.3418499263        7.2111072975  MEMB      42              0.0000000000
      3326        42  POPC      H9Y            -2.4791562786      -22.7735893105        7.0841616244  MEMB      42              0.0000000000
      3327        42  POPC      C310           -1.3480500843      -23.1251610169        5.4117885150  MEMB      42              0.0000000000
      3328        42  POPC      H10X           -1.9275476026      -22.3703333569        4.8384310639  MEMB      42              0.0000000000
      3329        42  POPC      H10Y           -1.0537637206      -23.9833834448        4.7705623149  MEMB      42              0.0000000000
      3330        42  POPC      C311           -0.1112128332      -22.4001578488        5.8721842784  MEMB      42              0.0000000000
      3331        42  POPC      H11X            0.3146301170      -22.8295663437        6.8041643370  MEMB      42              0.0000000000
      3332        42  POPC      H11Y           -0.3765959360      -21.3440819518        6.0926302044  MEMB      42              0.0000000000
      3333        42  POPC      C312            1.0244494706      -22.3699426130        4.8621834966  MEMB      42              0.0000000000
      3334        42  POPC      H12X            1.3407554943      -23.4325980821        4.7912275942  MEMB      42              0.0000000000
      3335        42  POPC      H12Y            1.7990552620      -21.7121925215        5.3112623220  MEMB      42              0.0000000000
      3336        42  POPC      C313            0.8113607532      -21.7198076214        3.4694579239  MEMB      42              0.0000000000
      3337        42  POPC      H13X            0.8391651524      -20.6103478209        3.4180122705  MEMB      42              0.0000000000
      3338        42  POPC      H13Y           -0.2025706924      -21.9435413636        3.0742273025  MEMB      42              0.0000000000
      3339        42  POPC      C314            1.9638648392      -22.0191580038        2.5128789451  MEMB      42              0.0000000000
      3340        42  POPC      H14X            2.9012924753      -21.5335921689        2.8589665361  MEMB      42              0.0000000000
      3341        42  POPC      H14Y            1.7695966894      -21.4955350209        1.5524618799  MEMB      42              0.0000000000
      3342        42  POPC      C315            2.2033345085      -23.4306584166        2.2312106478  MEMB      42              0.0000000000
      3343        42  POPC      H15X            2.7239171152      -23.9679355226        3.0525807392  MEMB      42              0.0000000000
      3344        42  POPC      H15Y            2.9634888773      -23.5137857794        1.4252483180  MEMB      42              0.0000000000
      3345        42  POPC      C316            0.9780654565      -24.3000145434        1.7743544059  MEMB      42              0.0000000000
      3346        42  POPC      H16X            0.2751612980      -24.5274723384        2.6041194887  MEMB      42              0.0000000000
      3347        42  POPC      H16Y            1.3132111517      -25.2585864183        1.3236462827  MEMB      42              0.0000000000
      3348        42  POPC      H16Z            0.4715214193      -23.7503880256        0.9523791705  MEMB      42              0.0000000000
      3349        43  POPC      N               8.6062853964       17.3151780736       20.8789161971  MEMB      43              0.0000000000
      3350        43  POPC      C12             9.7161451619       17.9452780256       20.0947716548  MEMB      43              0.0000000000
      3351        43  POPC      H12A           10.6999238346       17.5142608136       20.2079251278  MEMB      43              0.0000000000
      3352        43  POPC      H12B            9.8174192764       18.9457159106       20.4888116673  MEMB      43              0.0000000000
      3353        43  POPC      C13             9.0718182269       17.3551922569       22.3197208655  MEMB      43              0.0000000000
      3354        43  POPC      H13A            9.1431349275       18.4198804908       22.4863130347  MEMB      43              0.0000000000
      3355        43  POPC      H13B            8.1713916344       17.0321877650       22.8210189985  MEMB      43              0.0000000000
      3356        43  POPC      H13C           10.0041279735       16.8302397520       22.4667696889  MEMB      43              0.0000000000
      3357        43  POPC      C14             7.2743766805       18.0201306898       20.6794058167  MEMB      43              0.0000000000
      3358        43  POPC      H14A            7.4878447538       19.0655083963       20.8467875504  MEMB      43              0.0000000000
      3359        43  POPC      H14B            7.0613406767       17.9645233253       19.6220868337  MEMB      43              0.0000000000
      3360        43  POPC      H14C            6.5321294722       17.7341510367       21.4099431937  MEMB      43              0.0000000000
      3361        43  POPC      C15             8.4994674529       15.9055697398       20.6368205406  MEMB      43              0.0000000000
      3362        43  POPC      H15A            9.5139502790       15.5689818738       20.4821170515  MEMB      43              0.0000000000
      3363        43  POPC      H15B            7.9336536546       15.5401397845       19.7925956469  MEMB      43              0.0000000000
      3364        43  POPC      H15C            8.1524459222       15.5833353621       21.6074599646  MEMB      43              0.0000000000
      3365        43  POPC      C11             9.5645283961       18.0615855270       18.5240840406  MEMB      43              0.0000000000
      3366        43  POPC      H11A           10.4849347790       18.1846501354       17.9141428645  MEMB      43              0.0000000000
      3367        43  POPC      H11B            8.8688982342       18.9045972553       18.3247078910  MEMB      43              0.0000000000
      3368        43  POPC      P               9.7649648518       15.8071904877       17.1430723056  MEMB      43              0.0000000000
      3369        43  POPC      O13             8.7627082956       14.8237728131       16.6769238890  MEMB      43              0.0000000000
      3370        43  POPC      O14            10.8549023932       15.2463357932       18.0503821668  MEMB      43              0.0000000000
      3371        43  POPC      O12             8.9146592893       16.8800907432       17.9904240705  MEMB      43              0.0000000000
      3372        43  POPC      O11            10.2883181757       16.7021797547       16.0054784583  MEMB      43              0.0000000000
      3373        43  POPC      C1              9.3049299780       17.3966742407       15.1792217792  MEMB      43              0.0000000000
      3374        43  POPC      HA              8.9425113411       18.3019505094       15.7116206491  MEMB      43              0.0000000000
      3375        43  POPC      HB              8.4483018930       16.7477010669       14.8975427440  MEMB      43              0.0000000000
      3376        43  POPC      C2              9.9982398015       17.6725648930       13.8409952096  MEMB      43              0.0000000000
      3377        43  POPC      HS              9.1612172013       17.7006325197       13.1109772943  MEMB      43              0.0000000000
      3378        43  POPC      O21            11.0405388495       16.8485944439       13.4833877268  MEMB      43              0.0000000000
      3379        43  POPC      C21            10.7638963087       15.5378255996       13.2075649613  MEMB      43              0.0000000000
      3380        43  POPC      O22             9.6584249113       14.9874086024       13.2081378642  MEMB      43              0.0000000000
      3381        43  POPC      C22            12.1303295474       14.8477294830       12.8071161496  MEMB      43              0.0000000000
      3382        43  POPC      H2R            12.0778119023       13.9120257450       13.4037914814  MEMB      43              0.0000000000
      3383        43  POPC      H2S            12.9841013226       15.5387458194       12.9741221175  MEMB      43              0.0000000000
      3384        43  POPC      C3             10.6527449181       19.0983953711       13.8738587748  MEMB      43              0.0000000000
      3385        43  POPC      HX             11.4099299303       19.0885117013       14.6868128028  MEMB      43              0.0000000000
      3386        43  POPC      HY              9.9288847320       19.9284466598       14.0200171601  MEMB      43              0.0000000000
      3387        43  POPC      O31            11.1689550644       19.2479428881       12.5428618555  MEMB      43              0.0000000000
      3388        43  POPC      C31            11.6990933834       20.4862385415       12.2895541444  MEMB      43              0.0000000000
      3389        43  POPC      O32            11.7491966976       21.4501692074       13.0752758157  MEMB      43              0.0000000000
      3390        43  POPC      C32            12.5288414093       20.4393908959       10.8980661019  MEMB      43              0.0000000000
      3391        43  POPC      H2X            13.1299880394       19.5051278447       10.8882549253  MEMB      43              0.0000000000
      3392        43  POPC      H2Y            13.1943880816       21.3253358087       10.8176302465  MEMB      43              0.0000000000
      3393        43  POPC      C23            11.9840044849       14.7159822571       11.2524571770  MEMB      43              0.0000000000
      3394        43  POPC      H3R            10.9785558407       14.3645299211       10.9364265159  MEMB      43              0.0000000000
      3395        43  POPC      H3S            12.7178799202       13.9254685491       10.9863062623  MEMB      43              0.0000000000
      3396        43  POPC      C24            12.5206321498       15.9344757214       10.3903848113  MEMB      43              0.0000000000
      3397        43  POPC      H4R            13.6027721287       15.8561291782       10.6294573812  MEMB      43              0.0000000000
      3398        43  POPC      H4S            12.1283373343       16.9094715759       10.7506753782  MEMB      43              0.0000000000
      3399        43  POPC      C25            12.3043486145       15.8575320814        8.8282334787  MEMB      43              0.0000000000
      3400        43  POPC      H5R            12.7752425698       14.9018787795        8.5131039608  MEMB      43              0.0000000000
      3401        43  POPC      H5S            12.9325964967       16.6995979202        8.4669163963  MEMB      43              0.0000000000
      3402        43  POPC      C26            10.8263554937       16.0428872694        8.5028120611  MEMB      43              0.0000000000
      3403        43  POPC      H6R            10.5659618991       16.9944874433        9.0136675082  MEMB      43              0.0000000000
      3404        43  POPC      H6S            10.2008801179       15.1879824151        8.8378332655  MEMB      43              0.0000000000
      3405        43  POPC      C27            10.7804522804       16.0708296293        6.8900288966  MEMB      43              0.0000000000
      3406        43  POPC      H7R            11.2981224929       15.1779155006        6.4788811574  MEMB      43              0.0000000000
      3407        43  POPC      H7S            11.3789907187       16.9109846960        6.4774608267  MEMB      43              0.0000000000
      3408        43  POPC      C28             9.3043961953       16.1025832666        6.4368090152  MEMB      43              0.0000000000
      3409        43  POPC      H8R             8.7488671524       15.1698800685        6.6729737117  MEMB      43              0.0000000000
      3410        43  POPC      H8S             9.3430591355       15.9356410425        5.3391044480  MEMB      43              0.0000000000
      3411        43  POPC      C29             8.7265850985       17.3879389866        6.8108280484  MEMB      43              0.0000000000
      3412        43  POPC      H91             9.1694482722       18.2973101456        6.3784893155  MEMB      43              0.0000000000
      3413        43  POPC      C210            7.7087514779       17.6992622883        7.6561072380  MEMB      43              0.0000000000
      3414        43  POPC      H101            7.5214603584       18.7681681358        7.8360027747  MEMB      43              0.0000000000
      3415        43  POPC      C211            6.9265527136       16.7039456943        8.4897295845  MEMB      43              0.0000000000
      3416        43  POPC      H11R            6.5154824374       17.2565051359        9.3615212180  MEMB      43              0.0000000000
      3417        43  POPC      H11S            7.6892591859       15.9732944939        8.8343291831  MEMB      43              0.0000000000
      3418        43  POPC      C212            5.7103858706       16.1601508990        7.7508873585  MEMB      43              0.0000000000
      3419        43  POPC      H12R            5.1389936741       16.9576747319        7.2295542036  MEMB      43              0.0000000000
      3420        43  POPC      H12S            5.0432050416       15.7459995405        8.5368067808  MEMB      43              0.0000000000
      3421        43  POPC      C213            5.9596157527       14.9192616741        6.7731830994  MEMB      43              0.0000000000
      3422        43  POPC      H13R            5.0631949102       14.2704462040        6.8721271490  MEMB      43              0.0000000000
      3423        43  POPC      H13S            6.8768558792       14.3598558729        7.0561266093  MEMB      43              0.0000000000
      3424        43  POPC      C214            5.8443097115       15.3856677272        5.3135148284  MEMB      43              0.0000000000
      3425        43  POPC      H14R            6.2173934679       16.4173795291        5.1383009280  MEMB      43              0.0000000000
      3426        43  POPC      H14S            4.7441949235       15.4987163237        5.2072672113  MEMB      43              0.0000000000
      3427        43  POPC      C215            6.2839553452       14.4657060375        4.1715716319  MEMB      43              0.0000000000
      3428        43  POPC      H15R            5.8352667497       13.4596040793        4.3156497621  MEMB      43              0.0000000000
      3429        43  POPC      H15S            7.3784764779       14.3012303674        4.2679714568  MEMB      43              0.0000000000
      3430        43  POPC      C216            5.9536153977       15.0878767395        2.8599873724  MEMB      43              0.0000000000
      3431        43  POPC      H16R            4.8862460605       15.3951873566        2.8354185505  MEMB      43              0.0000000000
      3432        43  POPC      H16S            6.1080703635       14.3225881493        2.0695455744  MEMB      43              0.0000000000
      3433        43  POPC      C217            6.8494576487       16.2266077642        2.4025454833  MEMB      43              0.0000000000
      3434        43  POPC      H17R            7.9158805904       15.9150869465        2.3983045934  MEMB      43              0.0000000000
      3435        43  POPC      H17S            6.7329020591       17.0964283236        3.0838297166  MEMB      43              0.0000000000
      3436        43  POPC      C218            6.5090891886       16.7411158625        0.9724528498  MEMB      43              0.0000000000
      3437        43  POPC      H18R            6.8648297527       15.9623770412        0.2644023055  MEMB      43              0.0000000000
      3438        43  POPC      H18S            7.0028941252       17.7263260157        0.8316027957  MEMB      43              0.0000000000
      3439        43  POPC      H18T            5.4108500920       16.7523198025        0.8049230767  MEMB      43              0.0000000000
      3440        43  POPC      C33            11.7255467959       20.4019963484        9.6307837679  MEMB      43              0.0000000000
      3441        43  POPC      H3X            11.2336655725       21.3903948146        9.5065162516  MEMB      43              0.0000000000
      3442        43  POPC      H3Y            10.9186651738       19.6391676329        9.6675958717  MEMB      43              0.0000000000
      3443        43  POPC      C34            12.5813546021       20.3328343942        8.3742626677  MEMB      43              0.0000000000
      3444        43  POPC      H4X            13.3937261887       19.5750257732        8.3642815857  MEMB      43              0.0000000000
      3445        43  POPC      H4Y            13.0308113384       21.3404379045        8.2437060562  MEMB      43              0.0000000000
      3446        43  POPC      C35            11.6338320003       20.0297230747        7.2041204110  MEMB      43              0.0000000000
      3447        43  POPC      H5X            10.7701705050       20.7274632227        7.2437264690  MEMB      43              0.0000000000
      3448        43  POPC      H5Y            11.2265102849       19.0171698740        7.4118356181  MEMB      43              0.0000000000
      3449        43  POPC      C36            12.3190121851       20.0227045996        5.8230187037  MEMB      43              0.0000000000
      3450        43  POPC      H6X            11.6024102471       19.8061588553        5.0020984932  MEMB      43              0.0000000000
      3451        43  POPC      H6Y            13.0851744112       19.2205349167        5.8849887180  MEMB      43              0.0000000000
      3452        43  POPC      C37            12.9730347175       21.3466781583        5.3378198817  MEMB      43              0.0000000000
      3453        43  POPC      H7X            13.9321258905       21.5045269967        5.8759176359  MEMB      43              0.0000000000
      3454        43  POPC      H7Y            12.3240381264       22.2450718600        5.4153651243  MEMB      43              0.0000000000
      3455        43  POPC      C38            13.3781875476       21.2323285849        3.8128963260  MEMB      43              0.0000000000
      3456        43  POPC      H8X            13.6918716260       20.1869816219        3.6051161352  MEMB      43              0.0000000000
      3457        43  POPC      H8Y            14.2208463225       21.9338061288        3.6335187655  MEMB      43              0.0000000000
      3458        43  POPC      C39            12.3366647772       21.7900894884        2.9190651048  MEMB      43              0.0000000000
      3459        43  POPC      H9X            12.3025454958       22.9004595785        2.9037206551  MEMB      43              0.0000000000
      3460        43  POPC      H9Y            11.3464037884       21.4995855531        3.3305398028  MEMB      43              0.0000000000
      3461        43  POPC      C310           12.4525876951       21.2535120013        1.5111494156  MEMB      43              0.0000000000
      3462        43  POPC      H10X           13.4823803846       20.8366091784        1.5175141828  MEMB      43              0.0000000000
      3463        43  POPC      H10Y           12.3708941919       22.2210644150        0.9712513398  MEMB      43              0.0000000000
      3464        43  POPC      C311           11.4812351294       20.1462050993        1.1087394556  MEMB      43              0.0000000000
      3465        43  POPC      H11X           10.4046796426       20.4022790056        1.0098688583  MEMB      43              0.0000000000
      3466        43  POPC      H11Y           11.6607205341       19.4384391731        1.9460998101  MEMB      43              0.0000000000
      3467        43  POPC      C312           11.9435604351       19.4694781758       -0.1450393017  MEMB      43              0.0000000000
      3468        43  POPC      H12X           13.0001638982       19.1984962922        0.0658617658  MEMB      43              0.0000000000
      3469        43  POPC      H12Y           11.9004575106       20.1886470296       -0.9907686019  MEMB      43              0.0000000000
      3470        43  POPC      C313           11.2791599060       18.1505833501       -0.5810129350  MEMB      43              0.0000000000
      3471        43  POPC      H13X           10.9787468844       18.2454679806       -1.6464104513  MEMB      43              0.0000000000
      3472        43  POPC      H13Y           10.3335855612       18.0840909599       -0.0015413133  MEMB      43              0.0000000000
      3473        43  POPC      C314           12.1945603122       16.9276336519       -0.3153927067  MEMB      43              0.0000000000
      3474        43  POPC      H14X           12.4115122988       16.8897124778        0.7735594470  MEMB      43              0.0000000000
      3475        43  POPC      H14Y           13.1453585316       16.9849050455       -0.8872520350  MEMB      43              0.0000000000
      3476        43  POPC      C315           11.6228898070       15.5146833562       -0.6240350057  MEMB      43              0.0000000000
      3477        43  POPC      H15X           12.3073893718       14.7071596775       -0.2868605482  MEMB      43              0.0000000000
      3478        43  POPC      H15Y           11.4682401187       15.4938178433       -1.7240216518  MEMB      43              0.0000000000
      3479        43  POPC      C316           10.2862675060       15.2623592605        0.0771181137  MEMB      43              0.0000000000
      3480        43  POPC      H16X           10.4289339218       15.2293436843        1.1784253303  MEMB      43              0.0000000000
      3481        43  POPC      H16Y            9.7781155816       14.2782834848       -0.0106173609  MEMB      43              0.0000000000
      3482        43  POPC      H16Z            9.4811717526       16.0076002834       -0.0982614456  MEMB      43              0.0000000000
      3483        44  POPE      N             -14.3752045211      -13.4586872455       21.7441423406  MEMB      44              0.0000000000
      3484        44  POPE      HN1           -13.6430318240      -12.8801453272       22.2032856405  MEMB      44              0.0000000000
      3485        44  POPE      HN2           -14.9456620328      -13.9058396361       22.4899527377  MEMB      44              0.0000000000
      3486        44  POPE      HN3           -13.9837699522      -14.1540428249       21.0771644614  MEMB      44              0.0000000000
      3487        44  POPE      C12           -15.1667468911      -12.4880867199       20.9816529447  MEMB      44              0.0000000000
      3488        44  POPE      H12A          -15.7798371157      -11.9139513391       21.7088462090  MEMB      44              0.0000000000
      3489        44  POPE      H12B          -15.7344823129      -13.0756180937       20.2287890061  MEMB      44              0.0000000000
      3490        44  POPE      C11           -14.3386725966      -11.3854468853       20.3098938048  MEMB      44              0.0000000000
      3491        44  POPE      H11A          -13.5278656961      -11.1583178707       21.0346874187  MEMB      44              0.0000000000
      3492        44  POPE      H11B          -14.9996164296      -10.4927853286       20.2848014092  MEMB      44              0.0000000000
      3493        44  POPE      P             -14.6014572977      -11.1133034109       17.7617481259  MEMB      44              0.0000000000
      3494        44  POPE      O13           -13.9606802638       -9.7920587758       17.5376483755  MEMB      44              0.0000000000
      3495        44  POPE      O14           -16.0911798376      -11.2137159597       17.9668793013  MEMB      44              0.0000000000
      3496        44  POPE      O11           -14.1864834397      -12.1601887720       16.6658434964  MEMB      44              0.0000000000
      3497        44  POPE      O12           -13.9377535499      -11.8791554285       19.0321916078  MEMB      44              0.0000000000
      3498        44  POPE      C1            -14.6175494046      -13.4639419071       16.6011511281  MEMB      44              0.0000000000
      3499        44  POPE      HA            -15.5002719707      -13.6387976183       17.2527240601  MEMB      44              0.0000000000
      3500        44  POPE      HB            -13.7944576915      -14.1584669407       16.8740543581  MEMB      44              0.0000000000
      3501        44  POPE      C2            -15.0966633188      -13.8164079501       15.1687453778  MEMB      44              0.0000000000
      3502        44  POPE      HS            -15.4837540240      -14.8575874395       15.1480732811  MEMB      44              0.0000000000
      3503        44  POPE      O21           -14.1127370033      -13.5929815218       14.1809857964  MEMB      44              0.0000000000
      3504        44  POPE      C21           -12.9540090959      -14.2708720350       14.3058818452  MEMB      44              0.0000000000
      3505        44  POPE      O22           -12.7486746977      -15.2035660060       15.0211816831  MEMB      44              0.0000000000
      3506        44  POPE      C22           -11.9429908036      -13.5453764872       13.3752896438  MEMB      44              0.0000000000
      3507        44  POPE      H2R           -10.9521623174      -13.5663048591       13.8774269842  MEMB      44              0.0000000000
      3508        44  POPE      H2S           -12.2731961393      -12.4921046282       13.2491792898  MEMB      44              0.0000000000
      3509        44  POPE      C3            -16.3300514858      -12.8589391527       14.8563103679  MEMB      44              0.0000000000
      3510        44  POPE      HX            -17.0811068048      -12.8780209390       15.6747679293  MEMB      44              0.0000000000
      3511        44  POPE      HY            -16.8715386429      -13.2292314678       13.9596520781  MEMB      44              0.0000000000
      3512        44  POPE      O31           -15.9202156405      -11.4868523125       14.6963597372  MEMB      44              0.0000000000
      3513        44  POPE      C31           -16.9465966986      -10.7162694993       14.3017938225  MEMB      44              0.0000000000
      3514        44  POPE      O32           -18.0888235405      -11.0049808351       14.2892035669  MEMB      44              0.0000000000
      3515        44  POPE      C32           -16.2296486583       -9.4205892685       13.7901777648  MEMB      44              0.0000000000
      3516        44  POPE      H2X           -15.6332651386       -8.9840408219       14.6196795433  MEMB      44              0.0000000000
      3517        44  POPE      H2Y           -17.0083831082       -8.6576791342       13.5760234877  MEMB      44              0.0000000000
      3518        44  POPE      C23           -11.8445806698      -14.1554827193       11.9797625073  MEMB      44              0.0000000000
      3519        44  POPE      H3R           -12.8261558602      -14.2620106122       11.4703679670  MEMB      44              0.0000000000
      3520        44  POPE      H3S           -11.5331948522      -15.2073109946       12.1558783883  MEMB      44              0.0000000000
      3521        44  POPE      C24           -10.8399612174      -13.5711582687       11.0160160291  MEMB      44              0.0000000000
      3522        44  POPE      H4R            -9.8915862310      -13.4509794943       11.5821107127  MEMB      44              0.0000000000
      3523        44  POPE      H4S           -11.1158271809      -12.5190444004       10.7895757809  MEMB      44              0.0000000000
      3524        44  POPE      C25           -10.5192071679      -14.3929275576        9.7516275039  MEMB      44              0.0000000000
      3525        44  POPE      H5R            -9.9329528852      -15.2925160536       10.0368765527  MEMB      44              0.0000000000
      3526        44  POPE      H5S            -9.8800946806      -13.7958288524        9.0665512324  MEMB      44              0.0000000000
      3527        44  POPE      C26           -11.7665902851      -14.9111171497        8.9135643476  MEMB      44              0.0000000000
      3528        44  POPE      H6R           -12.4704913646      -15.5626204392        9.4742676677  MEMB      44              0.0000000000
      3529        44  POPE      H6S           -11.5037236081      -15.4448958062        7.9753204213  MEMB      44              0.0000000000
      3530        44  POPE      C27           -12.7060695837      -13.8541434196        8.5980759067  MEMB      44              0.0000000000
      3531        44  POPE      H7R           -12.0980343495      -12.9866645835        8.2632702840  MEMB      44              0.0000000000
      3532        44  POPE      H7S           -13.3024526913      -13.6366297978        9.5098525352  MEMB      44              0.0000000000
      3533        44  POPE      C28           -13.6291761865      -14.2461195548        7.4755985151  MEMB      44              0.0000000000
      3534        44  POPE      H8R           -13.0767326747      -14.5083747022        6.5480478360  MEMB      44              0.0000000000
      3535        44  POPE      H8S           -14.2168282285      -13.3507457369        7.1801468214  MEMB      44              0.0000000000
      3536        44  POPE      C29           -14.5512204643      -15.3566794831        7.8688914960  MEMB      44              0.0000000000
      3537        44  POPE      H91           -14.2478388153      -15.9219231880        8.7624562849  MEMB      44              0.0000000000
      3538        44  POPE      C210          -15.6645685683      -15.6840361931        7.1151997667  MEMB      44              0.0000000000
      3539        44  POPE      H101          -16.3121667673      -16.5274513167        7.3967446854  MEMB      44              0.0000000000
      3540        44  POPE      C211          -16.0938980046      -14.9827982394        5.8314727609  MEMB      44              0.0000000000
      3541        44  POPE      H11R          -16.5486264554      -15.8124336498        5.2490224678  MEMB      44              0.0000000000
      3542        44  POPE      H11S          -15.1922043777      -14.7341710537        5.2319277485  MEMB      44              0.0000000000
      3543        44  POPE      C212          -17.0621155192      -13.8010545261        5.9794414535  MEMB      44              0.0000000000
      3544        44  POPE      H12R          -16.5542815131      -12.9541173556        6.4884829288  MEMB      44              0.0000000000
      3545        44  POPE      H12S          -17.9031034472      -14.1216075649        6.6308292870  MEMB      44              0.0000000000
      3546        44  POPE      C213          -17.8236203127      -13.3521130353        4.7961729067  MEMB      44              0.0000000000
      3547        44  POPE      H13R          -18.4255709905      -12.4955784099        5.1680934557  MEMB      44              0.0000000000
      3548        44  POPE      H13S          -18.5128035061      -14.1878328553        4.5493535390  MEMB      44              0.0000000000
      3549        44  POPE      C214          -17.0057889564      -12.9620345397        3.5529005160  MEMB      44              0.0000000000
      3550        44  POPE      H14R          -17.6148113028      -13.0661561064        2.6295528887  MEMB      44              0.0000000000
      3551        44  POPE      H14S          -16.2256018311      -13.7344314919        3.3825137788  MEMB      44              0.0000000000
      3552        44  POPE      C215          -16.2893135216      -11.6161934176        3.7808441349  MEMB      44              0.0000000000
      3553        44  POPE      H15R          -15.6552422446      -11.6607704452        4.6920454615  MEMB      44              0.0000000000
      3554        44  POPE      H15S          -17.0659409406      -10.8302633081        3.8969672239  MEMB      44              0.0000000000
      3555        44  POPE      C216          -15.3549437810      -11.2628081239        2.5706602241  MEMB      44              0.0000000000
      3556        44  POPE      H16R          -15.9360142531      -11.5362086268        1.6640578660  MEMB      44              0.0000000000
      3557        44  POPE      H16S          -14.4548841786      -11.9083598523        2.6571289070  MEMB      44              0.0000000000
      3558        44  POPE      C217          -14.9447983205       -9.8478834006        2.4667220300  MEMB      44              0.0000000000
      3559        44  POPE      H17R          -14.5432022130       -9.5237067673        3.4505673136  MEMB      44              0.0000000000
      3560        44  POPE      H17S          -15.8923792442       -9.2771041105        2.3636566641  MEMB      44              0.0000000000
      3561        44  POPE      C218          -14.0569921121       -9.5421083487        1.2930455408  MEMB      44              0.0000000000
      3562        44  POPE      H18R          -13.8787051145       -8.4499387344        1.1945530716  MEMB      44              0.0000000000
      3563        44  POPE      H18S          -14.5350600113       -9.9548597387        0.3790387446  MEMB      44              0.0000000000
      3564        44  POPE      H18T          -13.0533811757      -10.0183586939        1.3095317507  MEMB      44              0.0000000000
      3565        44  POPE      C33           -15.3787729202       -9.5877235049       12.5020184401  MEMB      44              0.0000000000
      3566        44  POPE      H3X           -14.6088502711      -10.3879218458       12.5369834294  MEMB      44              0.0000000000
      3567        44  POPE      H3Y           -14.8604110091       -8.6569216075       12.1870102750  MEMB      44              0.0000000000
      3568        44  POPE      C34           -16.3302082558       -9.8359120210       11.3601405590  MEMB      44              0.0000000000
      3569        44  POPE      H4X           -17.0897846109       -9.0257817247       11.3925963997  MEMB      44              0.0000000000
      3570        44  POPE      H4Y           -16.7405060882      -10.8669942174       11.4134905923  MEMB      44              0.0000000000
      3571        44  POPE      C35           -15.7152163625       -9.7704327454        9.9287703300  MEMB      44              0.0000000000
      3572        44  POPE      H5X           -15.4877138875       -8.7555122243        9.5382571698  MEMB      44              0.0000000000
      3573        44  POPE      H5Y           -16.4180912267      -10.2316368558        9.2024236617  MEMB      44              0.0000000000
      3574        44  POPE      C36           -14.3398876217      -10.4552344932        9.7753258548  MEMB      44              0.0000000000
      3575        44  POPE      H6X           -14.2243859873      -10.7841651818        8.7204389581  MEMB      44              0.0000000000
      3576        44  POPE      H6Y           -14.5027083386      -11.3859132854       10.3598315464  MEMB      44              0.0000000000
      3577        44  POPE      C37           -13.0265793767       -9.6168536100        9.9495509588  MEMB      44              0.0000000000
      3578        44  POPE      H7X           -12.2360279987      -10.3680949605        9.7374525838  MEMB      44              0.0000000000
      3579        44  POPE      H7Y           -12.8201482619       -9.1942669032       10.9560934752  MEMB      44              0.0000000000
      3580        44  POPE      C38           -13.0646194437       -8.5983826169        8.8087800767  MEMB      44              0.0000000000
      3581        44  POPE      H8X           -13.7949921931       -7.7770162319        8.9707495818  MEMB      44              0.0000000000
      3582        44  POPE      H8Y           -13.1829363613       -9.1070567923        7.8281818157  MEMB      44              0.0000000000
      3583        44  POPE      C39           -11.6409373134       -7.9507478947        8.5235328983  MEMB      44              0.0000000000
      3584        44  POPE      H9X           -11.3467399572       -7.4948118665        9.4930123116  MEMB      44              0.0000000000
      3585        44  POPE      H9Y           -11.7318111356       -7.1887167491        7.7201821358  MEMB      44              0.0000000000
      3586        44  POPE      C310          -10.5394383116       -8.9583422700        8.2092301313  MEMB      44              0.0000000000
      3587        44  POPE      H10X          -10.5519186678       -9.7645555899        8.9735497989  MEMB      44              0.0000000000
      3588        44  POPE      H10Y           -9.5395084282       -8.4962144099        8.3537945573  MEMB      44              0.0000000000
      3589        44  POPE      C311          -10.4611928560       -9.4342714673        6.7458198415  MEMB      44              0.0000000000
      3590        44  POPE      H11X          -10.2787295872       -8.5438559219        6.1069232732  MEMB      44              0.0000000000
      3591        44  POPE      H11Y          -11.4662510058       -9.7983330040        6.4431022978  MEMB      44              0.0000000000
      3592        44  POPE      C312           -9.3383478678      -10.4493612780        6.5317299329  MEMB      44              0.0000000000
      3593        44  POPE      H12X           -9.7019320191      -11.3819230803        7.0138669716  MEMB      44              0.0000000000
      3594        44  POPE      H12Y           -8.4218195617      -10.1321484702        7.0736460114  MEMB      44              0.0000000000
      3595        44  POPE      C313           -9.1139939259      -10.8554863115        5.0572850626  MEMB      44              0.0000000000
      3596        44  POPE      H13X           -8.3200326691      -10.2162641965        4.6153106568  MEMB      44              0.0000000000
      3597        44  POPE      H13Y          -10.0505376671      -10.6623877519        4.4916712422  MEMB      44              0.0000000000
      3598        44  POPE      C314           -8.7617123819      -12.3684853436        4.7862230036  MEMB      44              0.0000000000
      3599        44  POPE      H14X           -9.5829980079      -12.9629024702        5.2406238443  MEMB      44              0.0000000000
      3600        44  POPE      H14Y           -7.7635707608      -12.5573599278        5.2360673852  MEMB      44              0.0000000000
      3601        44  POPE      C315           -8.7191756808      -12.6344996411        3.3526956516  MEMB      44              0.0000000000
      3602        44  POPE      H15X           -8.2931110289      -13.6605508800        3.3497307581  MEMB      44              0.0000000000
      3603        44  POPE      H15Y           -7.9782925407      -11.9461907540        2.8926482765  MEMB      44              0.0000000000
      3604        44  POPE      C316          -10.0108892456      -12.5152910223        2.6053585820  MEMB      44              0.0000000000
      3605        44  POPE      H16X          -10.7635442663      -13.1585872872        3.1093435467  MEMB      44              0.0000000000
      3606        44  POPE      H16Y           -9.8654461607      -12.8738230188        1.5639068804  MEMB      44              0.0000000000
      3607        44  POPE      H16Z          -10.4184907418      -11.4831305833        2.5521953962  MEMB      44              0.0000000000
      3608        45  POPC      N              -7.4295632939      -15.4838572098       20.3242275641  MEMB      45              0.0000000000
      3609        45  POPC      C12            -7.8697838762      -15.6523599813       18.8654674623  MEMB      45              0.0000000000
      3610        45  POPC      H12A           -8.5937656649      -16.4516094761       18.8067257149  MEMB      45              0.0000000000
      3611        45  POPC      H12B           -7.0379363323      -16.0637753499       18.3130481265  MEMB      45              0.0000000000
      3612        45  POPC      C13            -8.4973685475      -14.9022713747       21.1684619653  MEMB      45              0.0000000000
      3613        45  POPC      H13A           -8.1805397041      -14.8757055598       22.2006025425  MEMB      45              0.0000000000
      3614        45  POPC      H13B           -8.8361934572      -13.9347491499       20.8286112418  MEMB      45              0.0000000000
      3615        45  POPC      H13C           -9.3749708898      -15.5316337630       21.1792825047  MEMB      45              0.0000000000
      3616        45  POPC      C14            -6.9918954672      -16.8401299476       20.8788968588  MEMB      45              0.0000000000
      3617        45  POPC      H14A           -6.5846774718      -16.6665051367       21.8639998338  MEMB      45              0.0000000000
      3618        45  POPC      H14B           -7.8617240363      -17.4802627246       20.8735770778  MEMB      45              0.0000000000
      3619        45  POPC      H14C           -6.1978731564      -17.3483086237       20.3519405158  MEMB      45              0.0000000000
      3620        45  POPC      C15            -6.2754799188      -14.5735838517       20.4245303036  MEMB      45              0.0000000000
      3621        45  POPC      H15A           -6.5562344937      -13.6079651243       20.0306304173  MEMB      45              0.0000000000
      3622        45  POPC      H15B           -5.4943423329      -14.8992015113       19.7535628730  MEMB      45              0.0000000000
      3623        45  POPC      H15C           -6.0546332296      -14.5610225318       21.4816343667  MEMB      45              0.0000000000
      3624        45  POPC      C11            -8.3732684453      -14.4613691714       18.0777832603  MEMB      45              0.0000000000
      3625        45  POPC      H11A           -8.5059628532      -14.8743992430       17.0549835712  MEMB      45              0.0000000000
      3626        45  POPC      H11B           -7.5659201164      -13.6989502451       18.0427547577  MEMB      45              0.0000000000
      3627        45  POPC      P             -11.0201081444      -13.9155423545       17.8257428311  MEMB      45              0.0000000000
      3628        45  POPC      O13           -10.7564089215      -13.2839638253       16.5268470496  MEMB      45              0.0000000000
      3629        45  POPC      O14           -11.8942932038      -13.0993886239       18.6286402329  MEMB      45              0.0000000000
      3630        45  POPC      O12            -9.6860232534      -14.0174394363       18.5842729877  MEMB      45              0.0000000000
      3631        45  POPC      O11           -11.5502305027      -15.3944593127       17.6951295047  MEMB      45              0.0000000000
      3632        45  POPC      C1            -12.0592481997      -16.1679624850       18.8027390560  MEMB      45              0.0000000000
      3633        45  POPC      HA            -13.0881430772      -15.9309449928       19.1484542370  MEMB      45              0.0000000000
      3634        45  POPC      HB            -11.2693556944      -16.0689487144       19.5777146762  MEMB      45              0.0000000000
      3635        45  POPC      C2            -12.1172062412      -17.6467350078       18.4300098164  MEMB      45              0.0000000000
      3636        45  POPC      HS            -12.1734962040      -18.2190227996       19.3806093044  MEMB      45              0.0000000000
      3637        45  POPC      O21           -10.9240468111      -18.1261419195       17.7271257115  MEMB      45              0.0000000000
      3638        45  POPC      C21            -9.9687505502      -18.5465481770       18.4252412585  MEMB      45              0.0000000000
      3639        45  POPC      O22            -9.9917274869      -18.5678082499       19.6625008871  MEMB      45              0.0000000000
      3640        45  POPC      C22            -8.7176546670      -18.9296819658       17.7037129172  MEMB      45              0.0000000000
      3641        45  POPC      H2R            -8.6067716131      -20.0337129386       17.6476659234  MEMB      45              0.0000000000
      3642        45  POPC      H2S            -7.8729246514      -18.5202061446       18.2979195315  MEMB      45              0.0000000000
      3643        45  POPC      C3            -13.3088964810      -17.9585053453       17.4454008973  MEMB      45              0.0000000000
      3644        45  POPC      HX            -14.3230793255      -17.8234671194       17.8784350983  MEMB      45              0.0000000000
      3645        45  POPC      HY            -13.1589232275      -19.0186117687       17.1487474992  MEMB      45              0.0000000000
      3646        45  POPC      O31           -13.1386153649      -17.1767459112       16.2781927367  MEMB      45              0.0000000000
      3647        45  POPC      C31           -13.4522091690      -17.6028695143       15.0975690714  MEMB      45              0.0000000000
      3648        45  POPC      O32           -13.9523998529      -18.6756831069       14.7982908970  MEMB      45              0.0000000000
      3649        45  POPC      C32           -13.0863569156      -16.5821139466       14.0356561621  MEMB      45              0.0000000000
      3650        45  POPC      H2X           -12.0090873875      -16.5862616100       13.7640056667  MEMB      45              0.0000000000
      3651        45  POPC      H2Y           -13.3448738210      -15.6157307036       14.5189709321  MEMB      45              0.0000000000
      3652        45  POPC      C23            -8.7376210531      -18.4096343808       16.2406770592  MEMB      45              0.0000000000
      3653        45  POPC      H3R            -8.8453450213      -17.3212576834       16.4360035856  MEMB      45              0.0000000000
      3654        45  POPC      H3S            -9.6336166781      -18.7581539250       15.6838584127  MEMB      45              0.0000000000
      3655        45  POPC      C24            -7.4707995878      -18.5232900288       15.2832966336  MEMB      45              0.0000000000
      3656        45  POPC      H4R            -7.0810912788      -19.5332128647       15.5333046839  MEMB      45              0.0000000000
      3657        45  POPC      H4S            -6.7125013350      -17.7409470010       15.5006544674  MEMB      45              0.0000000000
      3658        45  POPC      C25            -7.6129379099      -18.4347167092       13.8287318807  MEMB      45              0.0000000000
      3659        45  POPC      H5R            -8.2292156222      -19.2898663478       13.4776737366  MEMB      45              0.0000000000
      3660        45  POPC      H5S            -6.6317412713      -18.4525122843       13.3079082910  MEMB      45              0.0000000000
      3661        45  POPC      C26            -8.2092333627      -17.0832602196       13.3714304853  MEMB      45              0.0000000000
      3662        45  POPC      H6R            -7.2876906293      -16.4629999337       13.3525320928  MEMB      45              0.0000000000
      3663        45  POPC      H6S            -8.8724909617      -16.6625773325       14.1572016040  MEMB      45              0.0000000000
      3664        45  POPC      C27            -9.0270188159      -17.1002388783       12.0575610089  MEMB      45              0.0000000000
      3665        45  POPC      H7R            -8.9394475384      -16.0913745687       11.6005652437  MEMB      45              0.0000000000
      3666        45  POPC      H7S           -10.1046398415      -17.2851103217       12.2547323383  MEMB      45              0.0000000000
      3667        45  POPC      C28            -8.8115312972      -18.3471980294       11.1795448629  MEMB      45              0.0000000000
      3668        45  POPC      H8R            -8.9877426881      -19.3313860949       11.6639454577  MEMB      45              0.0000000000
      3669        45  POPC      H8S            -7.7147749193      -18.3368353204       11.0025170543  MEMB      45              0.0000000000
      3670        45  POPC      C29            -9.5527768025      -18.2714739862        9.8660791867  MEMB      45              0.0000000000
      3671        45  POPC      H91           -10.6122933944      -18.5508170386        9.9629912266  MEMB      45              0.0000000000
      3672        45  POPC      C210           -9.0402179262      -17.8479866163        8.6969017268  MEMB      45              0.0000000000
      3673        45  POPC      H101           -9.6594839301      -17.7259539645        7.7960039930  MEMB      45              0.0000000000
      3674        45  POPC      C211           -7.6497821670      -17.4107583702        8.4201647597  MEMB      45              0.0000000000
      3675        45  POPC      H11R           -6.8525526438      -17.8130655395        9.0811457389  MEMB      45              0.0000000000
      3676        45  POPC      H11S           -7.6541488211      -16.3073358378        8.5496298681  MEMB      45              0.0000000000
      3677        45  POPC      C212           -7.1117813112      -17.4405677728        6.9731068986  MEMB      45              0.0000000000
      3678        45  POPC      H12R           -6.0860308911      -17.0729729058        6.7562408397  MEMB      45              0.0000000000
      3679        45  POPC      H12S           -7.7730237856      -16.7495547855        6.4077924607  MEMB      45              0.0000000000
      3680        45  POPC      C213           -7.1881817349      -18.7558513043        6.1971351036  MEMB      45              0.0000000000
      3681        45  POPC      H13R           -8.0854067963      -19.3442811782        6.4853337233  MEMB      45              0.0000000000
      3682        45  POPC      H13S           -6.3480347663      -19.4225979097        6.4868303963  MEMB      45              0.0000000000
      3683        45  POPC      C214           -7.0434336648      -18.7894064772        4.6421093731  MEMB      45              0.0000000000
      3684        45  POPC      H14R           -7.9430869616      -18.2680686794        4.2507626955  MEMB      45              0.0000000000
      3685        45  POPC      H14S           -7.1112438603      -19.8146391185        4.2194727391  MEMB      45              0.0000000000
      3686        45  POPC      C215           -5.7670975285      -18.2473516165        3.9946869169  MEMB      45              0.0000000000
      3687        45  POPC      H15R           -4.9982110508      -18.8350948353        4.5402993052  MEMB      45              0.0000000000
      3688        45  POPC      H15S           -5.7302572957      -17.1726066509        4.2737699209  MEMB      45              0.0000000000
      3689        45  POPC      C216           -5.7390443953      -18.4095396404        2.4837846525  MEMB      45              0.0000000000
      3690        45  POPC      H16R           -5.7254550032      -19.5188693269        2.4244228554  MEMB      45              0.0000000000
      3691        45  POPC      H16S           -4.7692315791      -18.0447461447        2.0828992717  MEMB      45              0.0000000000
      3692        45  POPC      C217           -6.9157096202      -17.7952618610        1.6862131574  MEMB      45              0.0000000000
      3693        45  POPC      H17R           -7.8796354349      -18.2858392096        1.9401857445  MEMB      45              0.0000000000
      3694        45  POPC      H17S           -6.7211269510      -18.1395970683        0.6479982972  MEMB      45              0.0000000000
      3695        45  POPC      C218           -7.1058947306      -16.2934536090        1.7452663613  MEMB      45              0.0000000000
      3696        45  POPC      H18R           -6.4464943156      -15.6084355917        1.1705819117  MEMB      45              0.0000000000
      3697        45  POPC      H18S           -7.2154252985      -15.8717189264        2.7672579702  MEMB      45              0.0000000000
      3698        45  POPC      H18T           -8.1001760169      -16.1762671355        1.2636104115  MEMB      45              0.0000000000
      3699        45  POPC      C33           -14.0473406726      -16.8408963874       12.8833977737  MEMB      45              0.0000000000
      3700        45  POPC      H3X           -15.1217884294      -16.7428289348       13.1484747838  MEMB      45              0.0000000000
      3701        45  POPC      H3Y           -13.7565263378      -17.7789246267       12.3639257003  MEMB      45              0.0000000000
      3702        45  POPC      C34           -14.0580011451      -15.7739901216       11.7327240648  MEMB      45              0.0000000000
      3703        45  POPC      H4X           -14.3689863245      -14.8516886561       12.2684191963  MEMB      45              0.0000000000
      3704        45  POPC      H4Y           -14.8536691098      -16.1368344385       11.0474670719  MEMB      45              0.0000000000
      3705        45  POPC      C35           -12.6983689713      -15.4548516273       11.0810494474  MEMB      45              0.0000000000
      3706        45  POPC      H5X           -12.3267009984      -16.4302126988       10.7004507596  MEMB      45              0.0000000000
      3707        45  POPC      H5Y           -11.9773750057      -15.0440238953       11.8197708241  MEMB      45              0.0000000000
      3708        45  POPC      C36           -12.6457803658      -14.3346597502       10.0139207455  MEMB      45              0.0000000000
      3709        45  POPC      H6X           -13.1006791491      -13.4422604660       10.4945575206  MEMB      45              0.0000000000
      3710        45  POPC      H6Y           -13.2517752315      -14.5255939354        9.1025282743  MEMB      45              0.0000000000
      3711        45  POPC      C37           -11.1568652680      -14.0695370988        9.5574980894  MEMB      45              0.0000000000
      3712        45  POPC      H7X           -10.6141264634      -14.9533008733        9.1591048899  MEMB      45              0.0000000000
      3713        45  POPC      H7Y           -10.5471824258      -13.7249352278       10.4199697096  MEMB      45              0.0000000000
      3714        45  POPC      C38           -10.9820464573      -12.9580971751        8.4741102808  MEMB      45              0.0000000000
      3715        45  POPC      H8X            -9.9035195969      -12.9679165090        8.2076438305  MEMB      45              0.0000000000
      3716        45  POPC      H8Y           -11.2718623717      -11.9448240184        8.8256855871  MEMB      45              0.0000000000
      3717        45  POPC      C39           -11.6520937113      -13.2892633103        7.1028940967  MEMB      45              0.0000000000
      3718        45  POPC      H9X           -11.4963038878      -12.5180485448        6.3184973455  MEMB      45              0.0000000000
      3719        45  POPC      H9Y           -12.7392065244      -13.2284220600        7.3238127177  MEMB      45              0.0000000000
      3720        45  POPC      C310          -11.3453824080      -14.6832953545        6.5738535367  MEMB      45              0.0000000000
      3721        45  POPC      H10X          -12.1621983162      -15.0039572271        5.8924512603  MEMB      45              0.0000000000
      3722        45  POPC      H10Y          -11.3938474640      -15.4157204927        7.4078348689  MEMB      45              0.0000000000
      3723        45  POPC      C311           -9.9354137630      -14.7896125104        5.9333521648  MEMB      45              0.0000000000
      3724        45  POPC      H11X           -9.2335276176      -15.0648738302        6.7493832444  MEMB      45              0.0000000000
      3725        45  POPC      H11Y           -9.5505050541      -13.8016684607        5.6014893037  MEMB      45              0.0000000000
      3726        45  POPC      C312           -9.7655882313      -15.8354355763        4.8302893836  MEMB      45              0.0000000000
      3727        45  POPC      H12X          -10.0258881998      -16.8752672344        5.1223769086  MEMB      45              0.0000000000
      3728        45  POPC      H12Y           -8.6888740256      -15.9621130848        4.5874721809  MEMB      45              0.0000000000
      3729        45  POPC      C313          -10.5241618643      -15.5529088076        3.5646199833  MEMB      45              0.0000000000
      3730        45  POPC      H13X          -11.5650679961      -15.5142848436        3.9510694708  MEMB      45              0.0000000000
      3731        45  POPC      H13Y          -10.5281825154      -16.4216611548        2.8721056323  MEMB      45              0.0000000000
      3732        45  POPC      C314          -10.1612988318      -14.2707760094        2.8063900885  MEMB      45              0.0000000000
      3733        45  POPC      H14X           -9.0855202259      -14.2160086987        2.5343201945  MEMB      45              0.0000000000
      3734        45  POPC      H14Y          -10.2563993129      -13.4443497820        3.5427975179  MEMB      45              0.0000000000
      3735        45  POPC      C315          -10.9713296839      -14.1484162976        1.5212472402  MEMB      45              0.0000000000
      3736        45  POPC      H15X          -10.6545707031      -14.8876320282        0.7547333089  MEMB      45              0.0000000000
      3737        45  POPC      H15Y          -10.8991765542      -13.1186935311        1.1104117064  MEMB      45              0.0000000000
      3738        45  POPC      C316          -12.4724801332      -14.4074459577        1.6300941118  MEMB      45              0.0000000000
      3739        45  POPC      H16X          -12.6969230123      -15.3825804099        2.1128556071  MEMB      45              0.0000000000
      3740        45  POPC      H16Y          -13.0127050126      -14.5112795212        0.6648485825  MEMB      45              0.0000000000
      3741        45  POPC      H16Z          -12.8914505840      -13.6119314228        2.2827354440  MEMB      45              0.0000000000
      3742        46  POPE      N             -20.4730600718        3.0486316209       20.0834422275  MEMB      46              0.0000000000
      3743        46  POPE      HN1           -21.3835800963        3.3902774974       19.7148893160  MEMB      46              0.0000000000
      3744        46  POPE      HN2           -19.9122485965        2.6711827993       19.2931113367  MEMB      46              0.0000000000
      3745        46  POPE      HN3           -20.5561540268        2.2954246697       20.7957447350  MEMB      46              0.0000000000
      3746        46  POPE      C12           -19.8520711507        4.2971522294       20.6773697571  MEMB      46              0.0000000000
      3747        46  POPE      H12A          -18.9142780384        4.0636742730       21.2254144892  MEMB      46              0.0000000000
      3748        46  POPE      H12B          -20.5739598880        4.7321300044       21.4012426136  MEMB      46              0.0000000000
      3749        46  POPE      C11           -19.5211155996        5.3848076550       19.6414340154  MEMB      46              0.0000000000
      3750        46  POPE      H11A          -18.9225057252        5.0889261796       18.7534918594  MEMB      46              0.0000000000
      3751        46  POPE      H11B          -19.0215384860        6.2162501466       20.1831415895  MEMB      46              0.0000000000
      3752        46  POPE      P             -20.6745651006        7.2308129837       18.3496569593  MEMB      46              0.0000000000
      3753        46  POPE      O13           -19.7869304797        8.1699485779       18.9864994876  MEMB      46              0.0000000000
      3754        46  POPE      O14           -22.0514646857        7.5949537722       17.9201217576  MEMB      46              0.0000000000
      3755        46  POPE      O11           -19.8494203560        6.7311053406       17.0912676116  MEMB      46              0.0000000000
      3756        46  POPE      O12           -20.7806005533        5.9264526230       19.2502081644  MEMB      46              0.0000000000
      3757        46  POPE      C1            -20.2707328059        5.4741813928       16.5113416827  MEMB      46              0.0000000000
      3758        46  POPE      HA            -21.2657615269        5.0512478143       16.7670091153  MEMB      46              0.0000000000
      3759        46  POPE      HB            -19.4959186040        4.6790733947       16.5536153306  MEMB      46              0.0000000000
      3760        46  POPE      C2            -20.4134048297        5.5986009756       14.9299909575  MEMB      46              0.0000000000
      3761        46  POPE      HS            -20.9973729483        4.6971720606       14.6458638564  MEMB      46              0.0000000000
      3762        46  POPE      O21           -19.1289827602        5.7172758783       14.3653863315  MEMB      46              0.0000000000
      3763        46  POPE      C21           -18.5778187471        4.6032157635       13.8521357033  MEMB      46              0.0000000000
      3764        46  POPE      O22           -19.0873859017        3.5251338079       13.8746602512  MEMB      46              0.0000000000
      3765        46  POPE      C22           -17.1249552117        4.8667303652       13.2615846078  MEMB      46              0.0000000000
      3766        46  POPE      H2R           -16.3491382866        4.3806560364       13.8909976598  MEMB      46              0.0000000000
      3767        46  POPE      H2S           -16.9592167622        5.9633128336       13.3276070380  MEMB      46              0.0000000000
      3768        46  POPE      C3            -21.2212058858        6.8091480043       14.4376475275  MEMB      46              0.0000000000
      3769        46  POPE      HX            -20.6985315720        7.7571770668       14.6873946008  MEMB      46              0.0000000000
      3770        46  POPE      HY            -22.1768752222        6.8048888862       15.0042152736  MEMB      46              0.0000000000
      3771        46  POPE      O31           -21.3718731962        6.6792741058       13.0621394610  MEMB      46              0.0000000000
      3772        46  POPE      C31           -22.5668241966        6.5758442843       12.4935042215  MEMB      46              0.0000000000
      3773        46  POPE      O32           -23.6442588905        6.7225663678       13.0459463137  MEMB      46              0.0000000000
      3774        46  POPE      C32           -22.2600321544        6.1513945418       11.0523073702  MEMB      46              0.0000000000
      3775        46  POPE      H2X           -22.5191396189        5.1201334352       10.7303058501  MEMB      46              0.0000000000
      3776        46  POPE      H2Y           -21.2044231109        6.3291780783       10.7549802884  MEMB      46              0.0000000000
      3777        46  POPE      C23           -16.9684905482        4.3176925025       11.7890007335  MEMB      46              0.0000000000
      3778        46  POPE      H3R           -17.0290132452        3.2142651064       11.9034817825  MEMB      46              0.0000000000
      3779        46  POPE      H3S           -15.9567798796        4.5717017294       11.4065848814  MEMB      46              0.0000000000
      3780        46  POPE      C24           -18.0944414697        4.6499975901       10.8260175387  MEMB      46              0.0000000000
      3781        46  POPE      H4R           -18.1974409152        5.7562121470       10.8248322952  MEMB      46              0.0000000000
      3782        46  POPE      H4S           -19.0422286403        4.3636885384       11.3300489220  MEMB      46              0.0000000000
      3783        46  POPE      C25           -17.9831436627        4.2284178387        9.3552658121  MEMB      46              0.0000000000
      3784        46  POPE      H5R           -18.4517097833        3.2373630739        9.1747740994  MEMB      46              0.0000000000
      3785        46  POPE      H5S           -16.9181871137        4.1029499312        9.0646699715  MEMB      46              0.0000000000
      3786        46  POPE      C26           -18.8114779603        5.1495202134        8.3915809838  MEMB      46              0.0000000000
      3787        46  POPE      H6R           -19.8392220948        5.1525430078        8.8135454786  MEMB      46              0.0000000000
      3788        46  POPE      H6S           -18.6844687034        4.6826536974        7.3914677136  MEMB      46              0.0000000000
      3789        46  POPE      C27           -18.5127132759        6.6623840526        8.2208509143  MEMB      46              0.0000000000
      3790        46  POPE      H7R           -17.4074145894        6.7713060159        8.2486320516  MEMB      46              0.0000000000
      3791        46  POPE      H7S           -18.9219307801        7.3009255223        9.0327173103  MEMB      46              0.0000000000
      3792        46  POPE      C28           -19.0248787510        7.2657793159        6.8983041976  MEMB      46              0.0000000000
      3793        46  POPE      H8R           -18.5954087006        6.5815736472        6.1355856409  MEMB      46              0.0000000000
      3794        46  POPE      H8S           -18.5450557643        8.2659293856        6.8367350598  MEMB      46              0.0000000000
      3795        46  POPE      C29           -20.4994833446        7.3527183573        7.0271955883  MEMB      46              0.0000000000
      3796        46  POPE      H91           -20.8888194937        8.0759559325        7.7588679634  MEMB      46              0.0000000000
      3797        46  POPE      C210          -21.4682711075        6.6842377387        6.3497058076  MEMB      46              0.0000000000
      3798        46  POPE      H101          -22.5341816596        6.7281396575        6.6178614143  MEMB      46              0.0000000000
      3799        46  POPE      C211          -21.1533009043        5.6541036196        5.2639913053  MEMB      46              0.0000000000
      3800        46  POPE      H11R          -21.9438073320        4.8780591900        5.1792809841  MEMB      46              0.0000000000
      3801        46  POPE      H11S          -20.3753867300        4.9678256342        5.6617264503  MEMB      46              0.0000000000
      3802        46  POPE      C212          -20.6667934856        6.2202580693        3.8659848695  MEMB      46              0.0000000000
      3803        46  POPE      H12R          -19.8850109739        6.9824996509        4.0712286359  MEMB      46              0.0000000000
      3804        46  POPE      H12S          -21.5523616068        6.5953959610        3.3097820284  MEMB      46              0.0000000000
      3805        46  POPE      C213          -20.0599422950        5.0425161913        3.0933085697  MEMB      46              0.0000000000
      3806        46  POPE      H13R          -20.6694189219        4.1151666430        3.1469922898  MEMB      46              0.0000000000
      3807        46  POPE      H13S          -19.0843791118        4.7953279921        3.5639414784  MEMB      46              0.0000000000
      3808        46  POPE      C214          -19.7907798325        5.3452884381        1.6999557666  MEMB      46              0.0000000000
      3809        46  POPE      H14R          -19.1227107521        6.2273522275        1.6001167758  MEMB      46              0.0000000000
      3810        46  POPE      H14S          -20.7180086737        5.6539330527        1.1714622210  MEMB      46              0.0000000000
      3811        46  POPE      C215          -19.3148471183        4.0882446278        1.0437044745  MEMB      46              0.0000000000
      3812        46  POPE      H15R          -20.2213072578        3.5158459050        0.7521371130  MEMB      46              0.0000000000
      3813        46  POPE      H15S          -18.6764664190        3.6057905025        1.8144376046  MEMB      46              0.0000000000
      3814        46  POPE      C216          -18.7779660384        4.2340491033       -0.3755875121  MEMB      46              0.0000000000
      3815        46  POPE      H16R          -19.5314913778        4.7391580467       -1.0169807837  MEMB      46              0.0000000000
      3816        46  POPE      H16S          -18.5799449383        3.2751172060       -0.9005239129  MEMB      46              0.0000000000
      3817        46  POPE      C217          -17.4764836528        5.0341378540       -0.4471823561  MEMB      46              0.0000000000
      3818        46  POPE      H17R          -16.8968870741        4.5257690147        0.3527871856  MEMB      46              0.0000000000
      3819        46  POPE      H17S          -17.6074702840        6.0898052113       -0.1266674672  MEMB      46              0.0000000000
      3820        46  POPE      C218          -16.7475776415        4.9857585476       -1.7771273698  MEMB      46              0.0000000000
      3821        46  POPE      H18R          -16.7367885670        3.9566100121       -2.1955263987  MEMB      46              0.0000000000
      3822        46  POPE      H18S          -15.7144441860        5.3857534756       -1.6937001176  MEMB      46              0.0000000000
      3823        46  POPE      H18T          -17.3725027083        5.6259366008       -2.4358872618  MEMB      46              0.0000000000
      3824        46  POPE      C33           -23.1364830683        7.2628271042       10.2386106139  MEMB      46              0.0000000000
      3825        46  POPE      H3X           -24.1830889467        7.1665925622       10.5987167041  MEMB      46              0.0000000000
      3826        46  POPE      H3Y           -23.1859074632        6.9266347100        9.1808522589  MEMB      46              0.0000000000
      3827        46  POPE      C34           -22.5421023544        8.6800302168       10.3556222700  MEMB      46              0.0000000000
      3828        46  POPE      H4X           -21.4836983576        8.7009872027       10.0184837561  MEMB      46              0.0000000000
      3829        46  POPE      H4Y           -22.4605948490        8.9063756669       11.4402630591  MEMB      46              0.0000000000
      3830        46  POPE      C35           -23.4402357791        9.7475476766        9.7832038587  MEMB      46              0.0000000000
      3831        46  POPE      H5X           -24.3769982425        9.8028662508       10.3779615967  MEMB      46              0.0000000000
      3832        46  POPE      H5Y           -23.8232681474        9.4196657872        8.7932029972  MEMB      46              0.0000000000
      3833        46  POPE      C36           -22.9021289053       11.2523412888        9.7136800256  MEMB      46              0.0000000000
      3834        46  POPE      H6X           -22.8396777309       11.7043952742       10.7266303323  MEMB      46              0.0000000000
      3835        46  POPE      H6Y           -23.6645586784       11.7772711220        9.0992940122  MEMB      46              0.0000000000
      3836        46  POPE      C37           -21.4740679117       11.3705715069        9.1067656484  MEMB      46              0.0000000000
      3837        46  POPE      H7X           -20.7959345692       10.6369773257        9.5928685938  MEMB      46              0.0000000000
      3838        46  POPE      H7Y           -21.1293468849       12.4086927031        9.3011705759  MEMB      46              0.0000000000
      3839        46  POPE      C38           -21.3531166573       11.3828683381        7.5556690105  MEMB      46              0.0000000000
      3840        46  POPE      H8X           -21.8056429717       12.3614693615        7.2875637352  MEMB      46              0.0000000000
      3841        46  POPE      H8Y           -21.9200802691       10.5586749937        7.0723699443  MEMB      46              0.0000000000
      3842        46  POPE      C39           -19.8722224640       11.3451391097        6.9522865392  MEMB      46              0.0000000000
      3843        46  POPE      H9X           -19.4681499805       10.5302682875        7.5902771712  MEMB      46              0.0000000000
      3844        46  POPE      H9Y           -19.3533707838       12.3081447152        7.1465396142  MEMB      46              0.0000000000
      3845        46  POPE      C310          -19.7901435547       11.0277088694        5.4809908649  MEMB      46              0.0000000000
      3846        46  POPE      H10X          -20.2693292673       10.0610418869        5.2159304342  MEMB      46              0.0000000000
      3847        46  POPE      H10Y          -18.7634402890       10.9515022772        5.0633860448  MEMB      46              0.0000000000
      3848        46  POPE      C311          -20.3715138446       12.1481761415        4.6183663952  MEMB      46              0.0000000000
      3849        46  POPE      H11X          -19.7544985619       13.0640149825        4.7402369606  MEMB      46              0.0000000000
      3850        46  POPE      H11Y          -21.3640178052       12.1777096737        5.1167482932  MEMB      46              0.0000000000
      3851        46  POPE      C312          -20.4814022762       11.9048704901        3.1566969509  MEMB      46              0.0000000000
      3852        46  POPE      H12X          -20.7975108486       12.8477047466        2.6612577693  MEMB      46              0.0000000000
      3853        46  POPE      H12Y          -21.3023259284       11.1728819098        2.9998577650  MEMB      46              0.0000000000
      3854        46  POPE      C313          -19.2529361632       11.4414751061        2.4561694216  MEMB      46              0.0000000000
      3855        46  POPE      H13X          -19.1631448437       10.3366977088        2.5318357573  MEMB      46              0.0000000000
      3856        46  POPE      H13Y          -18.2810095762       11.6513929177        2.9517649818  MEMB      46              0.0000000000
      3857        46  POPE      C314          -19.2462213160       11.7728883965        0.9440386096  MEMB      46              0.0000000000
      3858        46  POPE      H14X          -18.2665090707       11.4380280934        0.5411081823  MEMB      46              0.0000000000
      3859        46  POPE      H14Y          -19.2921159416       12.8797207034        0.8595584615  MEMB      46              0.0000000000
      3860        46  POPE      C315          -20.2696346349       11.0593523752        0.0891161727  MEMB      46              0.0000000000
      3861        46  POPE      H15X          -19.9673176989       11.2282749066       -0.9665320096  MEMB      46              0.0000000000
      3862        46  POPE      H15Y          -21.2381647800       11.5999579715        0.0257415549  MEMB      46              0.0000000000
      3863        46  POPE      C316          -20.4265717669        9.5792086419        0.2990742214  MEMB      46              0.0000000000
      3864        46  POPE      H16X          -21.2324168868        9.3386660396       -0.4269241799  MEMB      46              0.0000000000
      3865        46  POPE      H16Y          -20.8780949027        9.3827708054        1.2949956316  MEMB      46              0.0000000000
      3866        46  POPE      H16Z          -19.5343873784        8.9302761706        0.1678689954  MEMB      46              0.0000000000
      3867        47  POPE      N             -23.1727463163       -2.3108784991       16.7931722721  MEMB      47              0.0000000000
      3868        47  POPE      HN1           -23.6279826371       -1.6134787778       16.1702811493  MEMB      47              0.0000000000
      3869        47  POPE      HN2           -22.1589050703       -2.1203571020       16.9251859521  MEMB      47              0.0000000000
      3870        47  POPE      HN3           -23.3502526048       -3.2445958901       16.3709598134  MEMB      47              0.0000000000
      3871        47  POPE      C12           -23.8585907918       -2.5163784879       18.0867535196  MEMB      47              0.0000000000
      3872        47  POPE      H12A          -24.8555284688       -2.9484840987       17.8549754351  MEMB      47              0.0000000000
      3873        47  POPE      H12B          -23.9188291105       -1.4695249284       18.4538908555  MEMB      47              0.0000000000
      3874        47  POPE      C11           -22.9194172431       -3.2287706524       19.2644475064  MEMB      47              0.0000000000
      3875        47  POPE      H11A          -23.3731588558       -3.2192778230       20.2785231542  MEMB      47              0.0000000000
      3876        47  POPE      H11B          -21.9815228152       -2.6539815254       19.4203080995  MEMB      47              0.0000000000
      3877        47  POPE      P             -21.9877808223       -5.7533089049       19.6686567940  MEMB      47              0.0000000000
      3878        47  POPE      O13           -23.0607265960       -6.7060466042       20.0659501308  MEMB      47              0.0000000000
      3879        47  POPE      O14           -21.0599333182       -5.3131749927       20.7558542125  MEMB      47              0.0000000000
      3880        47  POPE      O11           -21.0115982613       -6.4598568571       18.6060693794  MEMB      47              0.0000000000
      3881        47  POPE      O12           -22.5411936256       -4.5193505110       18.7590961885  MEMB      47              0.0000000000
      3882        47  POPE      C1            -20.2860959519       -5.9059682633       17.5624451703  MEMB      47              0.0000000000
      3883        47  POPE      HA            -19.1985295844       -6.0526645380       17.7356516329  MEMB      47              0.0000000000
      3884        47  POPE      HB            -20.5830460666       -4.8780654736       17.2631835565  MEMB      47              0.0000000000
      3885        47  POPE      C2            -20.5268207103       -6.7686317799       16.2308631329  MEMB      47              0.0000000000
      3886        47  POPE      HS            -19.9028284466       -6.2376215767       15.4805413975  MEMB      47              0.0000000000
      3887        47  POPE      O21           -21.9777583652       -6.7410475749       16.0499693640  MEMB      47              0.0000000000
      3888        47  POPE      C21           -22.2632255911       -6.3956456899       14.7852672435  MEMB      47              0.0000000000
      3889        47  POPE      O22           -21.5386055006       -6.1682316606       13.8678456703  MEMB      47              0.0000000000
      3890        47  POPE      C22           -23.8210537915       -6.3795380000       14.6385883761  MEMB      47              0.0000000000
      3891        47  POPE      H2R           -24.3168106716       -6.8317262591       15.5240668525  MEMB      47              0.0000000000
      3892        47  POPE      H2S           -23.9586260613       -7.2034909722       13.9061289117  MEMB      47              0.0000000000
      3893        47  POPE      C3            -20.0092511681       -8.1961908074       16.3363321933  MEMB      47              0.0000000000
      3894        47  POPE      HX            -20.4659678929       -8.6005917599       17.2648743197  MEMB      47              0.0000000000
      3895        47  POPE      HY            -18.9091696587       -8.3430316470       16.3871224793  MEMB      47              0.0000000000
      3896        47  POPE      O31           -20.5245628484       -8.9728434769       15.2483287941  MEMB      47              0.0000000000
      3897        47  POPE      C31           -19.9646255520       -8.8550927065       14.0808209058  MEMB      47              0.0000000000
      3898        47  POPE      O32           -19.0397346264       -8.1473083226       13.7713973870  MEMB      47              0.0000000000
      3899        47  POPE      C32           -20.7263901942       -9.8087790078       13.1315119054  MEMB      47              0.0000000000
      3900        47  POPE      H2X           -21.7875814374       -9.9659638957       13.4204531079  MEMB      47              0.0000000000
      3901        47  POPE      H2Y           -20.2666525192      -10.8201182540       13.1190433379  MEMB      47              0.0000000000
      3902        47  POPE      C23           -24.5228692263       -5.1828856914       14.1223447040  MEMB      47              0.0000000000
      3903        47  POPE      H3R           -23.9599384416       -4.8118198665       13.2393159213  MEMB      47              0.0000000000
      3904        47  POPE      H3S           -24.6204054524       -4.4116536294       14.9160758735  MEMB      47              0.0000000000
      3905        47  POPE      C24           -25.9932470015       -5.3870120710       13.5325744030  MEMB      47              0.0000000000
      3906        47  POPE      H4R           -26.3086948517       -4.4894119775       12.9588776340  MEMB      47              0.0000000000
      3907        47  POPE      H4S           -26.6841847347       -5.4445417661       14.4006855941  MEMB      47              0.0000000000
      3908        47  POPE      C25           -26.2931636081       -6.6039801292       12.5771152289  MEMB      47              0.0000000000
      3909        47  POPE      H5R           -27.3689121800       -6.7729803895       12.3568317426  MEMB      47              0.0000000000
      3910        47  POPE      H5S           -25.9128644315       -7.4721076886       13.1568119177  MEMB      47              0.0000000000
      3911        47  POPE      C26           -25.5530651289       -6.5182181801       11.2199643412  MEMB      47              0.0000000000
      3912        47  POPE      H6R           -25.2772015821       -7.5168263935       10.8187148789  MEMB      47              0.0000000000
      3913        47  POPE      H6S           -24.5472814047       -6.0650345442       11.3516645426  MEMB      47              0.0000000000
      3914        47  POPE      C27           -26.2757977288       -5.6050460074       10.3381559307  MEMB      47              0.0000000000
      3915        47  POPE      H7R           -26.5570366092       -4.6015198934       10.7230735249  MEMB      47              0.0000000000
      3916        47  POPE      H7S           -27.2641347155       -6.0226622559       10.0498723016  MEMB      47              0.0000000000
      3917        47  POPE      C28           -25.3113743763       -5.3860564097        9.0702331421  MEMB      47              0.0000000000
      3918        47  POPE      H8R           -25.9801676529       -5.0464343718        8.2506640984  MEMB      47              0.0000000000
      3919        47  POPE      H8S           -24.8508734060       -6.3601897452        8.7994503357  MEMB      47              0.0000000000
      3920        47  POPE      C29           -24.3967599162       -4.1640546194        9.2628761084  MEMB      47              0.0000000000
      3921        47  POPE      H91           -24.8863312737       -3.1817665796        9.3365685433  MEMB      47              0.0000000000
      3922        47  POPE      C210          -23.0942343933       -4.2019980712        9.3421301794  MEMB      47              0.0000000000
      3923        47  POPE      H101          -22.7415000227       -3.1925545891        9.6002037021  MEMB      47              0.0000000000
      3924        47  POPE      C211          -22.1614188304       -5.3536622254        9.4069930228  MEMB      47              0.0000000000
      3925        47  POPE      H11R          -22.6107246016       -6.3527480756        9.2218640500  MEMB      47              0.0000000000
      3926        47  POPE      H11S          -21.7762562487       -5.4634723480       10.4432904890  MEMB      47              0.0000000000
      3927        47  POPE      C212          -20.9750787033       -5.2074201960        8.5140602845  MEMB      47              0.0000000000
      3928        47  POPE      H12R          -20.2304014053       -6.0171624007        8.6692831630  MEMB      47              0.0000000000
      3929        47  POPE      H12S          -20.4928495480       -4.2749708767        8.8778100578  MEMB      47              0.0000000000
      3930        47  POPE      C213          -21.0979693889       -5.1052694858        6.9539361414  MEMB      47              0.0000000000
      3931        47  POPE      H13R          -20.2053447013       -4.7920113918        6.3713448950  MEMB      47              0.0000000000
      3932        47  POPE      H13S          -21.7216695555       -4.1984701283        6.8021657654  MEMB      47              0.0000000000
      3933        47  POPE      C214          -21.6532117899       -6.3186517860        6.2674868321  MEMB      47              0.0000000000
      3934        47  POPE      H14R          -22.6241298326       -6.6599430541        6.6860075102  MEMB      47              0.0000000000
      3935        47  POPE      H14S          -20.9664608726       -7.1888352871        6.1934958258  MEMB      47              0.0000000000
      3936        47  POPE      C215          -22.1432493348       -6.1981190710        4.7627903008  MEMB      47              0.0000000000
      3937        47  POPE      H15R          -22.9877257421       -5.4791772506        4.8283853728  MEMB      47              0.0000000000
      3938        47  POPE      H15S          -22.6039793753       -7.1411218230        4.3983798929  MEMB      47              0.0000000000
      3939        47  POPE      C216          -21.0386315985       -5.7566277315        3.7899611481  MEMB      47              0.0000000000
      3940        47  POPE      H16R          -20.2061487840       -6.4875208057        3.8741543040  MEMB      47              0.0000000000
      3941        47  POPE      H16S          -20.5946729091       -4.7761164954        4.0653146858  MEMB      47              0.0000000000
      3942        47  POPE      C217          -21.5163184986       -5.5426799713        2.3340808991  MEMB      47              0.0000000000
      3943        47  POPE      H17R          -22.3022644353       -4.7624311004        2.2456420083  MEMB      47              0.0000000000
      3944        47  POPE      H17S          -22.0071882318       -6.4751089682        1.9820234069  MEMB      47              0.0000000000
      3945        47  POPE      C218          -20.3516550000       -5.1910158337        1.4538087982  MEMB      47              0.0000000000
      3946        47  POPE      H18R          -19.8902830558       -4.2523348799        1.8284205952  MEMB      47              0.0000000000
      3947        47  POPE      H18S          -20.8591606748       -4.9136996682        0.5052007258  MEMB      47              0.0000000000
      3948        47  POPE      H18T          -19.5502707363       -5.9565564922        1.3760102148  MEMB      47              0.0000000000
      3949        47  POPE      C33           -20.7514742316       -9.1246708039       11.7449314509  MEMB      47              0.0000000000
      3950        47  POPE      H3X           -19.7363565952       -8.9061118162       11.3498502405  MEMB      47              0.0000000000
      3951        47  POPE      H3Y           -21.3435790605       -8.1847607696       11.7623030024  MEMB      47              0.0000000000
      3952        47  POPE      C34           -21.3865908593       -9.9698624221       10.6417383850  MEMB      47              0.0000000000
      3953        47  POPE      H4X           -22.3632881209      -10.3945528255       10.9580001567  MEMB      47              0.0000000000
      3954        47  POPE      H4Y           -20.8389964730      -10.9092078466       10.4135028362  MEMB      47              0.0000000000
      3955        47  POPE      C35           -21.7800557380       -9.1688048368        9.4259983602  MEMB      47              0.0000000000
      3956        47  POPE      H5X           -20.9578795730       -8.4625292726        9.1820266702  MEMB      47              0.0000000000
      3957        47  POPE      H5Y           -22.5790487001       -8.4386772978        9.6766866744  MEMB      47              0.0000000000
      3958        47  POPE      C36           -22.3072500724      -10.0052982565        8.2678889953  MEMB      47              0.0000000000
      3959        47  POPE      H6X           -21.5070837548      -10.6871919159        7.9086167051  MEMB      47              0.0000000000
      3960        47  POPE      H6Y           -22.4346703623       -9.3485036234        7.3809246764  MEMB      47              0.0000000000
      3961        47  POPE      C37           -23.5479122744      -10.8716575764        8.5334982375  MEMB      47              0.0000000000
      3962        47  POPE      H7X           -23.2815498559      -11.6574370144        9.2723641404  MEMB      47              0.0000000000
      3963        47  POPE      H7Y           -23.7816314429      -11.3161249661        7.5424655596  MEMB      47              0.0000000000
      3964        47  POPE      C38           -24.7047130224      -10.0510435200        9.1050278615  MEMB      47              0.0000000000
      3965        47  POPE      H8X           -24.8462590194       -8.9868793041        8.8189503696  MEMB      47              0.0000000000
      3966        47  POPE      H8Y           -24.4928670825       -9.9018884982       10.1853961255  MEMB      47              0.0000000000
      3967        47  POPE      C39           -26.1062211120      -10.6025691265        9.1672034578  MEMB      47              0.0000000000
      3968        47  POPE      H9X           -26.7387391034       -9.7960239185        9.5958370610  MEMB      47              0.0000000000
      3969        47  POPE      H9Y           -26.1036923703      -11.4621869529        9.8710301462  MEMB      47              0.0000000000
      3970        47  POPE      C310          -26.7163863294      -10.9995604485        7.7472898229  MEMB      47              0.0000000000
      3971        47  POPE      H10X          -27.7151253644      -11.4834363511        7.7993017551  MEMB      47              0.0000000000
      3972        47  POPE      H10Y          -26.0520267124      -11.8093629327        7.3769296386  MEMB      47              0.0000000000
      3973        47  POPE      C311          -26.8120324806       -9.9736184034        6.5605653385  MEMB      47              0.0000000000
      3974        47  POPE      H11X          -27.3717109242      -10.4131847006        5.7074166890  MEMB      47              0.0000000000
      3975        47  POPE      H11Y          -25.7828065770       -9.9108893047        6.1469473918  MEMB      47              0.0000000000
      3976        47  POPE      C312          -27.1975484419       -8.4842215071        6.9139071661  MEMB      47              0.0000000000
      3977        47  POPE      H12X          -26.4245982965       -7.9943831683        7.5439294857  MEMB      47              0.0000000000
      3978        47  POPE      H12Y          -28.0702152654       -8.6211449270        7.5877211284  MEMB      47              0.0000000000
      3979        47  POPE      C313          -27.5982374121       -7.6516800779        5.6918445070  MEMB      47              0.0000000000
      3980        47  POPE      H13X          -28.1747625019       -6.7445990157        5.9731689827  MEMB      47              0.0000000000
      3981        47  POPE      H13Y          -28.2196787908       -8.3036506880        5.0414095303  MEMB      47              0.0000000000
      3982        47  POPE      C314          -26.3580613137       -7.1195997407        4.9396916980  MEMB      47              0.0000000000
      3983        47  POPE      H14X          -25.5171452709       -7.8068401583        5.1739597920  MEMB      47              0.0000000000
      3984        47  POPE      H14Y          -25.9465608218       -6.2118826081        5.4306474863  MEMB      47              0.0000000000
      3985        47  POPE      C315          -26.4022802845       -6.8918996582        3.4131922492  MEMB      47              0.0000000000
      3986        47  POPE      H15X          -27.2069895122       -6.1437162651        3.2489194046  MEMB      47              0.0000000000
      3987        47  POPE      H15Y          -26.6310966869       -7.9324400812        3.0981678870  MEMB      47              0.0000000000
      3988        47  POPE      C316          -25.0171629606       -6.5500277357        2.7299176409  MEMB      47              0.0000000000
      3989        47  POPE      H16X          -24.5850146216       -5.6033431939        3.1189630928  MEMB      47              0.0000000000
      3990        47  POPE      H16Y          -25.2085570720       -6.5255687567        1.6358002839  MEMB      47              0.0000000000
      3991        47  POPE      H16Z          -24.2871040807       -7.3631293126        2.9304184664  MEMB      47              0.0000000000
      3992        48  POPE      N             -15.6278868636       26.0597349712       19.5549818064  MEMB      48              0.0000000000
      3993        48  POPE      HN1           -15.1981908460       26.8296584389       20.1065060743  MEMB      48              0.0000000000
      3994        48  POPE      HN2           -14.9419517147       25.2864647060       19.4403252914  MEMB      48              0.0000000000
      3995        48  POPE      HN3           -15.7494305229       26.5627075873       18.6528479416  MEMB      48              0.0000000000
      3996        48  POPE      C12           -16.8292530185       25.4319022639       20.1316154157  MEMB      48              0.0000000000
      3997        48  POPE      H12A          -17.5414490647       26.2644145035       20.3160638452  MEMB      48              0.0000000000
      3998        48  POPE      H12B          -16.5937554252       25.1893039662       21.1899197020  MEMB      48              0.0000000000
      3999        48  POPE      C11           -17.4477406932       24.3254878985       19.3437246854  MEMB      48              0.0000000000
      4000        48  POPE      H11A          -17.5802369553       24.7435071107       18.3229281089  MEMB      48              0.0000000000
      4001        48  POPE      H11B          -18.3801316109       24.0483221290       19.8805180463  MEMB      48              0.0000000000
      4002        48  POPE      P             -16.9042958253       21.9762071450       18.5846696715  MEMB      48              0.0000000000
      4003        48  POPE      O13           -18.1603348891       22.1346949825       17.8800899753  MEMB      48              0.0000000000
      4004        48  POPE      O14           -16.9426045297       20.8460602747       19.5355152588  MEMB      48              0.0000000000
      4005        48  POPE      O11           -15.7047215452       21.7447899787       17.5530689901  MEMB      48              0.0000000000
      4006        48  POPE      O12           -16.4547890358       23.2562113135       19.4163341989  MEMB      48              0.0000000000
      4007        48  POPE      C1            -14.4441655233       22.1831406010       17.9465128130  MEMB      48              0.0000000000
      4008        48  POPE      HA            -14.1765198960       21.8337499085       18.9666171923  MEMB      48              0.0000000000
      4009        48  POPE      HB            -14.3876310516       23.2926600517       17.9560788310  MEMB      48              0.0000000000
      4010        48  POPE      C2            -13.3202180869       21.8652308663       16.8659438895  MEMB      48              0.0000000000
      4011        48  POPE      HS            -12.3782133545       22.3198611684       17.2404557236  MEMB      48              0.0000000000
      4012        48  POPE      O21           -13.7191415410       22.2653494400       15.4925473593  MEMB      48              0.0000000000
      4013        48  POPE      C21           -13.6283416005       23.5179767434       15.3460290776  MEMB      48              0.0000000000
      4014        48  POPE      O22           -12.9689119681       24.3166657960       16.0110417002  MEMB      48              0.0000000000
      4015        48  POPE      C22           -14.4900564060       24.0552019312       14.1575693649  MEMB      48              0.0000000000
      4016        48  POPE      H2R           -13.9647076091       23.6859345488       13.2509433101  MEMB      48              0.0000000000
      4017        48  POPE      H2S           -14.5766612045       25.1526426483       14.0077546392  MEMB      48              0.0000000000
      4018        48  POPE      C3            -13.0717348648       20.3136669529       16.8695139144  MEMB      48              0.0000000000
      4019        48  POPE      HX            -12.8201792006       19.8411610715       17.8430533712  MEMB      48              0.0000000000
      4020        48  POPE      HY            -12.1584490510       20.2155670479       16.2445287840  MEMB      48              0.0000000000
      4021        48  POPE      O31           -14.1230887367       19.6896772579       16.1863697986  MEMB      48              0.0000000000
      4022        48  POPE      C31           -15.0041386990       19.0442514861       16.9093978776  MEMB      48              0.0000000000
      4023        48  POPE      O32           -15.1217756908       18.9179349317       18.1066466832  MEMB      48              0.0000000000
      4024        48  POPE      C32           -15.9211073323       18.3061484498       15.9086068804  MEMB      48              0.0000000000
      4025        48  POPE      H2X           -16.4463049281       17.5030668243       16.4685610240  MEMB      48              0.0000000000
      4026        48  POPE      H2Y           -15.2893135810       17.8132081946       15.1390826813  MEMB      48              0.0000000000
      4027        48  POPE      C23           -15.9397948599       23.3466827560       14.1406522063  MEMB      48              0.0000000000
      4028        48  POPE      H3R           -16.6210991711       23.7721097311       14.9082181581  MEMB      48              0.0000000000
      4029        48  POPE      H3S           -15.8367138756       22.3005497945       14.5002367767  MEMB      48              0.0000000000
      4030        48  POPE      C24           -16.5410589803       23.2659911530       12.6951735358  MEMB      48              0.0000000000
      4031        48  POPE      H4R           -17.4939656217       22.6948929164       12.7068656051  MEMB      48              0.0000000000
      4032        48  POPE      H4S           -15.8320065963       22.7482938597       12.0143245476  MEMB      48              0.0000000000
      4033        48  POPE      C25           -16.8606654879       24.7171873468       12.3173188808  MEMB      48              0.0000000000
      4034        48  POPE      H5R           -15.9078195403       25.2760595643       12.4359239163  MEMB      48              0.0000000000
      4035        48  POPE      H5S           -17.6308463418       25.0453161856       13.0477117849  MEMB      48              0.0000000000
      4036        48  POPE      C26           -17.3937743177       24.7110768832       10.8728618599  MEMB      48              0.0000000000
      4037        48  POPE      H6R           -18.2529145563       24.0488371777       10.6327840525  MEMB      48              0.0000000000
      4038        48  POPE      H6S           -16.6002317559       24.3123482717       10.2053095641  MEMB      48              0.0000000000
      4039        48  POPE      C27           -17.8460341146       26.0663377210       10.4674577406  MEMB      48              0.0000000000
      4040        48  POPE      H7R           -16.9429926925       26.7124487932       10.4303400502  MEMB      48              0.0000000000
      4041        48  POPE      H7S           -18.4828981256       26.3979289354       11.3152623143  MEMB      48              0.0000000000
      4042        48  POPE      C28           -18.6737269349       26.2036070894        9.1828767652  MEMB      48              0.0000000000
      4043        48  POPE      H8R           -19.2660362583       27.1357584413        9.3036442926  MEMB      48              0.0000000000
      4044        48  POPE      H8S           -19.4616327547       25.4209377888        9.1519848779  MEMB      48              0.0000000000
      4045        48  POPE      C29           -17.8555776122       26.1124012941        7.8962252592  MEMB      48              0.0000000000
      4046        48  POPE      H91           -17.2946491395       27.0525666506        7.7892262995  MEMB      48              0.0000000000
      4047        48  POPE      C210          -17.7142294531       25.0562750113        6.9855162571  MEMB      48              0.0000000000
      4048        48  POPE      H101          -17.2038779224       25.1482850703        6.0154263972  MEMB      48              0.0000000000
      4049        48  POPE      C211          -18.4733109649       23.7320737985        7.2178886115  MEMB      48              0.0000000000
      4050        48  POPE      H11R          -18.7459023630       23.5790917549        8.2840082458  MEMB      48              0.0000000000
      4051        48  POPE      H11S          -17.7862918889       22.8748970235        7.0518349127  MEMB      48              0.0000000000
      4052        48  POPE      C212          -19.6687681507       23.5160580347        6.3434833919  MEMB      48              0.0000000000
      4053        48  POPE      H12R          -20.5066744152       24.1595336015        6.6872464551  MEMB      48              0.0000000000
      4054        48  POPE      H12S          -19.8711328992       22.4414719638        6.5400389940  MEMB      48              0.0000000000
      4055        48  POPE      C213          -19.3808617675       23.6255772918        4.8139978133  MEMB      48              0.0000000000
      4056        48  POPE      H13R          -18.6340359610       22.8427971861        4.5613563445  MEMB      48              0.0000000000
      4057        48  POPE      H13S          -19.0278129547       24.6291571101        4.4938333325  MEMB      48              0.0000000000
      4058        48  POPE      C214          -20.6622570471       23.4301394475        3.8324844328  MEMB      48              0.0000000000
      4059        48  POPE      H14R          -21.1789347463       24.3867844451        4.0609477606  MEMB      48              0.0000000000
      4060        48  POPE      H14S          -21.2413251364       22.6041045313        4.2979602185  MEMB      48              0.0000000000
      4061        48  POPE      C215          -20.3187674945       23.2689471258        2.3710541317  MEMB      48              0.0000000000
      4062        48  POPE      H15R          -21.2837747930       23.1711752390        1.8292787797  MEMB      48              0.0000000000
      4063        48  POPE      H15S          -19.8814376414       22.2513675745        2.2839016713  MEMB      48              0.0000000000
      4064        48  POPE      C216          -19.5606196743       24.4254872019        1.6172815918  MEMB      48              0.0000000000
      4065        48  POPE      H16R          -18.7130040657       24.7466507801        2.2597155638  MEMB      48              0.0000000000
      4066        48  POPE      H16S          -20.2533821118       25.2940437843        1.6140803339  MEMB      48              0.0000000000
      4067        48  POPE      C217          -19.1045088349       24.0541860265        0.2236354770  MEMB      48              0.0000000000
      4068        48  POPE      H17R          -18.5657588245       24.8434125854       -0.3431018859  MEMB      48              0.0000000000
      4069        48  POPE      H17S          -20.0575640992       23.8611918618       -0.3137285259  MEMB      48              0.0000000000
      4070        48  POPE      C218          -18.1601213251       22.8809401204        0.0716020181  MEMB      48              0.0000000000
      4071        48  POPE      H18R          -17.3498581652       23.0929048224        0.8015788157  MEMB      48              0.0000000000
      4072        48  POPE      H18S          -17.6470252778       22.8720103471       -0.9137783167  MEMB      48              0.0000000000
      4073        48  POPE      H18T          -18.5505201083       21.8713318147        0.3218030861  MEMB      48              0.0000000000
      4074        48  POPE      C33           -16.8514066198       19.1769348050       15.0468599444  MEMB      48              0.0000000000
      4075        48  POPE      H3X           -16.3428874562       19.9159646445       14.3914483615  MEMB      48              0.0000000000
      4076        48  POPE      H3Y           -17.5371654968       19.7071500026       15.7417899455  MEMB      48              0.0000000000
      4077        48  POPE      C34           -17.7502072199       18.4135411457       14.0829820123  MEMB      48              0.0000000000
      4078        48  POPE      H4X           -18.4107264792       19.1280410551       13.5467684474  MEMB      48              0.0000000000
      4079        48  POPE      H4Y           -18.4258822450       17.7404773286       14.6528675221  MEMB      48              0.0000000000
      4080        48  POPE      C35           -16.9922074097       17.6239116798       13.0120932674  MEMB      48              0.0000000000
      4081        48  POPE      H5X           -17.6160998511       17.0876619682       12.2654242606  MEMB      48              0.0000000000
      4082        48  POPE      H5Y           -16.3962975714       16.8403151129       13.5270575929  MEMB      48              0.0000000000
      4083        48  POPE      C36           -15.9945351524       18.4146446858       12.0368177160  MEMB      48              0.0000000000
      4084        48  POPE      H6X           -15.4557371978       17.5285485039       11.6382555425  MEMB      48              0.0000000000
      4085        48  POPE      H6Y           -15.2961688053       18.9799372175       12.6903081268  MEMB      48              0.0000000000
      4086        48  POPE      C37           -16.7404318758       19.2389149590       11.0328705833  MEMB      48              0.0000000000
      4087        48  POPE      H7X           -17.2472592903       20.0683336678       11.5709333258  MEMB      48              0.0000000000
      4088        48  POPE      H7Y           -17.4095722099       18.5666975745       10.4543407695  MEMB      48              0.0000000000
      4089        48  POPE      C38           -15.8279652334       19.8003882400       10.0673865842  MEMB      48              0.0000000000
      4090        48  POPE      H8X           -15.4588504893       18.9699656414        9.4282679462  MEMB      48              0.0000000000
      4091        48  POPE      H8Y           -14.8881395275       20.1251832683       10.5629242355  MEMB      48              0.0000000000
      4092        48  POPE      C39           -16.4083870773       20.8557242290        9.0831987051  MEMB      48              0.0000000000
      4093        48  POPE      H9X           -15.5175794335       21.4902400879        8.8878206673  MEMB      48              0.0000000000
      4094        48  POPE      H9Y           -17.1229952133       21.4173362127        9.7221414279  MEMB      48              0.0000000000
      4095        48  POPE      C310          -17.0283240751       20.1317127874        7.8638602342  MEMB      48              0.0000000000
      4096        48  POPE      H10X          -17.9587980232       20.6641711283        7.5722658834  MEMB      48              0.0000000000
      4097        48  POPE      H10Y          -17.1315631415       19.0714608966        8.1793417169  MEMB      48              0.0000000000
      4098        48  POPE      C311          -16.0386753307       20.2158535594        6.6504107021  MEMB      48              0.0000000000
      4099        48  POPE      H11X          -15.0642353462       19.6880272028        6.7290664842  MEMB      48              0.0000000000
      4100        48  POPE      H11Y          -15.8811411635       21.3133097537        6.5790394320  MEMB      48              0.0000000000
      4101        48  POPE      C312          -16.7280489434       19.7158499902        5.3324305765  MEMB      48              0.0000000000
      4102        48  POPE      H12X          -17.5131455685       20.4764286160        5.1337757731  MEMB      48              0.0000000000
      4103        48  POPE      H12Y          -17.2145906931       18.7592987073        5.6198466140  MEMB      48              0.0000000000
      4104        48  POPE      C313          -15.8671391794       19.5917249808        4.1112064963  MEMB      48              0.0000000000
      4105        48  POPE      H13X          -15.2427452428       18.6939616055        4.3073551679  MEMB      48              0.0000000000
      4106        48  POPE      H13Y          -15.1323505491       20.4006253185        4.3114219991  MEMB      48              0.0000000000
      4107        48  POPE      C314          -16.5664573726       19.6707434858        2.7275385163  MEMB      48              0.0000000000
      4108        48  POPE      H14X          -15.7982795358       19.5002971992        1.9432104254  MEMB      48              0.0000000000
      4109        48  POPE      H14Y          -16.8676489431       20.7400038552        2.7444787436  MEMB      48              0.0000000000
      4110        48  POPE      C315          -17.7526151789       18.7066899355        2.6204240105  MEMB      48              0.0000000000
      4111        48  POPE      H15X          -18.4862825806       19.0130668455        1.8444178333  MEMB      48              0.0000000000
      4112        48  POPE      H15Y          -18.2659293874       18.7043695836        3.6057278224  MEMB      48              0.0000000000
      4113        48  POPE      C316          -17.3866983267       17.2173057811        2.2377693952  MEMB      48              0.0000000000
      4114        48  POPE      H16X          -16.7362203336       17.1524027554        1.3394438521  MEMB      48              0.0000000000
      4115        48  POPE      H16Y          -18.2466553133       16.5140002354        2.2252596513  MEMB      48              0.0000000000
      4116        48  POPE      H16Z          -16.8180927071       16.8599760600        3.1228250927  MEMB      48              0.0000000000
      4117        49  POPC      N              19.5864747750       -2.7895208624       19.7557831439  MEMB      49              0.0000000000
      4118        49  POPC      C12            20.7500027184       -1.7713494515       19.5951550302  MEMB      49              0.0000000000
      4119        49  POPC      H12A           21.5688787073       -2.3097522184       19.1413218424  MEMB      49              0.0000000000
      4120        49  POPC      H12B           20.9958330189       -1.5017208632       20.6116528279  MEMB      49              0.0000000000
      4121        49  POPC      C13            18.9905054562       -3.0874804156       18.3512508599  MEMB      49              0.0000000000
      4122        49  POPC      H13A           18.0845782129       -3.6751208935       18.3318966348  MEMB      49              0.0000000000
      4123        49  POPC      H13B           18.6577035984       -2.0991478544       18.0704632297  MEMB      49              0.0000000000
      4124        49  POPC      H13C           19.7966759570       -3.6154672428       17.8636865690  MEMB      49              0.0000000000
      4125        49  POPC      C14            20.0751308346       -3.9814656522       20.4329587481  MEMB      49              0.0000000000
      4126        49  POPC      H14A           20.2510656610       -3.7291426509       21.4682268266  MEMB      49              0.0000000000
      4127        49  POPC      H14B           19.3934124811       -4.8126382249       20.3289768580  MEMB      49              0.0000000000
      4128        49  POPC      H14C           21.0011774480       -4.3515491039       20.0183793130  MEMB      49              0.0000000000
      4129        49  POPC      C15            18.4801724273       -2.2304429798       20.5581228426  MEMB      49              0.0000000000
      4130        49  POPC      H15A           18.8356564584       -2.1760882486       21.5764923885  MEMB      49              0.0000000000
      4131        49  POPC      H15B           17.6945214501       -2.9666892668       20.6423478453  MEMB      49              0.0000000000
      4132        49  POPC      H15C           18.2207957237       -1.2508424271       20.1846171508  MEMB      49              0.0000000000
      4133        49  POPC      C11            20.5812615199       -0.4069745067       18.8110247215  MEMB      49              0.0000000000
      4134        49  POPC      H11A           20.4225750076       -0.6952384250       17.7498727514  MEMB      49              0.0000000000
      4135        49  POPC      H11B           21.5110631916        0.1279450559       19.1002491220  MEMB      49              0.0000000000
      4136        49  POPC      P              18.3785089197        0.8875916724       18.3065610596  MEMB      49              0.0000000000
      4137        49  POPC      O13            17.8992815089        2.2035113135       18.6539261191  MEMB      49              0.0000000000
      4138        49  POPC      O14            17.3955642969       -0.2029053568       18.2796315815  MEMB      49              0.0000000000
      4139        49  POPC      O12            19.5302876903        0.3849280817       19.2906514835  MEMB      49              0.0000000000
      4140        49  POPC      O11            19.1396291547        1.1190797063       16.9649344047  MEMB      49              0.0000000000
      4141        49  POPC      C1             18.5108115129        1.7674889211       15.8647254825  MEMB      49              0.0000000000
      4142        49  POPC      HA             19.2608479608        2.2527436585       15.2041998176  MEMB      49              0.0000000000
      4143        49  POPC      HB             17.7492143400        2.5098055781       16.1860607786  MEMB      49              0.0000000000
      4144        49  POPC      C2             17.8497576511        0.7156579658       14.9024784694  MEMB      49              0.0000000000
      4145        49  POPC      HS             16.8715829260        0.4044671887       15.3275143848  MEMB      49              0.0000000000
      4146        49  POPC      O21            18.8335589414       -0.3328922496       14.8056657112  MEMB      49              0.0000000000
      4147        49  POPC      C21            18.2915051183       -1.5139702085       14.8180566410  MEMB      49              0.0000000000
      4148        49  POPC      O22            17.1239453942       -1.8048900650       14.9485139999  MEMB      49              0.0000000000
      4149        49  POPC      C22            19.3656743588       -2.5806931805       14.6248457589  MEMB      49              0.0000000000
      4150        49  POPC      H2R            18.9415826370       -3.5311396183       15.0135858498  MEMB      49              0.0000000000
      4151        49  POPC      H2S            20.3086515004       -2.4055192089       15.1855855392  MEMB      49              0.0000000000
      4152        49  POPC      C3             17.5169664653        1.2837135144       13.5324222512  MEMB      49              0.0000000000
      4153        49  POPC      HX             18.3900691168        1.8720235959       13.1775929785  MEMB      49              0.0000000000
      4154        49  POPC      HY             16.6745823257        2.0028536900       13.6192968293  MEMB      49              0.0000000000
      4155        49  POPC      O31            17.2076374325        0.3661560432       12.5144355385  MEMB      49              0.0000000000
      4156        49  POPC      C31            16.1002865373        0.3225256559       11.8817088405  MEMB      49              0.0000000000
      4157        49  POPC      O32            15.0630462460        0.9414219094       12.2246610242  MEMB      49              0.0000000000
      4158        49  POPC      C32            16.2140489006       -0.4661517910       10.6112485762  MEMB      49              0.0000000000
      4159        49  POPC      H2X            16.6325391294       -1.4305250886       10.9706522110  MEMB      49              0.0000000000
      4160        49  POPC      H2Y            16.8664813181        0.0948984320        9.9084858917  MEMB      49              0.0000000000
      4161        49  POPC      C23            19.6926170689       -2.6812238624       13.1461865606  MEMB      49              0.0000000000
      4162        49  POPC      H3R            20.3005119986       -1.8855605853       12.6648294927  MEMB      49              0.0000000000
      4163        49  POPC      H3S            18.7790639638       -2.7419723449       12.5168603308  MEMB      49              0.0000000000
      4164        49  POPC      C24            20.3564323026       -4.0703533070       12.7422613013  MEMB      49              0.0000000000
      4165        49  POPC      H4R            19.8491695934       -4.9200756402       13.2472145289  MEMB      49              0.0000000000
      4166        49  POPC      H4S            21.3792036275       -4.0708866976       13.1761502599  MEMB      49              0.0000000000
      4167        49  POPC      C25            20.5214716518       -4.3025661788       11.2467638819  MEMB      49              0.0000000000
      4168        49  POPC      H5R            19.5216168135       -4.5539213105       10.8327202184  MEMB      49              0.0000000000
      4169        49  POPC      H5S            21.0910638014       -5.2365288318       11.0528577226  MEMB      49              0.0000000000
      4170        49  POPC      C26            21.1541208638       -3.1574797615       10.3716706972  MEMB      49              0.0000000000
      4171        49  POPC      H6R            20.5161416579       -2.2489375652       10.4147383039  MEMB      49              0.0000000000
      4172        49  POPC      H6S            21.0670185042       -3.3811092824        9.2869014680  MEMB      49              0.0000000000
      4173        49  POPC      C27            22.6269211710       -2.9676888467       10.6711226205  MEMB      49              0.0000000000
      4174        49  POPC      H7R            23.2540476748       -3.8660989885       10.4870241335  MEMB      49              0.0000000000
      4175        49  POPC      H7S            22.7199642061       -2.9773822713       11.7781774032  MEMB      49              0.0000000000
      4176        49  POPC      C28            23.2345601367       -1.6728964392       10.1917880062  MEMB      49              0.0000000000
      4177        49  POPC      H8R            23.0061794483       -1.5063182977        9.1173510886  MEMB      49              0.0000000000
      4178        49  POPC      H8S            24.3306213150       -1.8544710040       10.1907205988  MEMB      49              0.0000000000
      4179        49  POPC      C29            22.8474627173       -0.5040564564       11.0488463281  MEMB      49              0.0000000000
      4180        49  POPC      H91            23.4226626547       -0.3435333947       11.9726306677  MEMB      49              0.0000000000
      4181        49  POPC      C210           21.9247039024        0.4341306317       10.7343365536  MEMB      49              0.0000000000
      4182        49  POPC      H101           21.6865321847        1.3026739426       11.3659274079  MEMB      49              0.0000000000
      4183        49  POPC      C211           21.1110562150        0.4501015970        9.4461662305  MEMB      49              0.0000000000
      4184        49  POPC      H11R           20.0486589804        0.5421558516        9.7578694011  MEMB      49              0.0000000000
      4185        49  POPC      H11S           21.1893405548       -0.5563002051        8.9821101530  MEMB      49              0.0000000000
      4186        49  POPC      C212           21.5224801380        1.5476510808        8.4030047560  MEMB      49              0.0000000000
      4187        49  POPC      H12R           22.5713272360        1.3764369708        8.0790812841  MEMB      49              0.0000000000
      4188        49  POPC      H12S           21.4721029429        2.4845778389        8.9979431544  MEMB      49              0.0000000000
      4189        49  POPC      C213           20.6707379547        1.6871278908        7.1318560681  MEMB      49              0.0000000000
      4190        49  POPC      H13R           20.7161086332        2.6815466221        6.6385069923  MEMB      49              0.0000000000
      4191        49  POPC      H13S           19.6299715098        1.7815243743        7.5089713690  MEMB      49              0.0000000000
      4192        49  POPC      C214           20.7366430789        0.5420689153        6.0773803898  MEMB      49              0.0000000000
      4193        49  POPC      H14R           20.6691975064       -0.4301677958        6.6107926592  MEMB      49              0.0000000000
      4194        49  POPC      H14S           21.7044326686        0.6022539961        5.5350876437  MEMB      49              0.0000000000
      4195        49  POPC      C215           19.5155167202        0.6037528632        5.1035434751  MEMB      49              0.0000000000
      4196        49  POPC      H15R           19.2835502976        1.5869396079        4.6410977507  MEMB      49              0.0000000000
      4197        49  POPC      H15S           18.6465730815        0.3893261831        5.7617831655  MEMB      49              0.0000000000
      4198        49  POPC      C216           19.6407121565       -0.4525815656        3.9940695925  MEMB      49              0.0000000000
      4199        49  POPC      H16R           18.7380166937       -0.3535828721        3.3540218012  MEMB      49              0.0000000000
      4200        49  POPC      H16S           19.4482715276       -1.4202451098        4.5048683949  MEMB      49              0.0000000000
      4201        49  POPC      C217           20.9232414424       -0.5785880202        3.1693202247  MEMB      49              0.0000000000
      4202        49  POPC      H17R           21.7442131030       -0.7952074474        3.8858413996  MEMB      49              0.0000000000
      4203        49  POPC      H17S           21.1047759555        0.4468758605        2.7822931676  MEMB      49              0.0000000000
      4204        49  POPC      C218           20.7657634385       -1.5333724512        1.9697972188  MEMB      49              0.0000000000
      4205        49  POPC      H18R           21.1254426465       -2.5614651896        2.1888345117  MEMB      49              0.0000000000
      4206        49  POPC      H18S           21.4923892664       -1.2096135434        1.1942232665  MEMB      49              0.0000000000
      4207        49  POPC      H18T           19.7224248574       -1.4689517766        1.5934793907  MEMB      49              0.0000000000
      4208        49  POPC      C33            14.9429587853       -0.5134751917        9.8230790549  MEMB      49              0.0000000000
      4209        49  POPC      H3X            14.3139756347        0.3985214735        9.9065247782  MEMB      49              0.0000000000
      4210        49  POPC      H3Y            14.5038218993       -1.3537657279       10.4022093006  MEMB      49              0.0000000000
      4211        49  POPC      C34            15.1054509622       -0.7804078310        8.3423380033  MEMB      49              0.0000000000
      4212        49  POPC      H4X            15.4666634445       -1.8068361087        8.1180798950  MEMB      49              0.0000000000
      4213        49  POPC      H4Y            15.9452580599       -0.1066618313        8.0682739804  MEMB      49              0.0000000000
      4214        49  POPC      C35            13.8357518544       -0.6492583563        7.5489037072  MEMB      49              0.0000000000
      4215        49  POPC      H5X            13.3294415213        0.3291477162        7.6927531654  MEMB      49              0.0000000000
      4216        49  POPC      H5Y            13.0133541797       -1.2810863530        7.9473720385  MEMB      49              0.0000000000
      4217        49  POPC      C36            14.0930255833       -1.0470651785        6.0994373127  MEMB      49              0.0000000000
      4218        49  POPC      H6X            13.1382446880       -0.9606194136        5.5379740190  MEMB      49              0.0000000000
      4219        49  POPC      H6Y            14.4779880434       -2.0853048678        6.0089762847  MEMB      49              0.0000000000
      4220        49  POPC      C37            15.0797470381       -0.0117171784        5.5044902752  MEMB      49              0.0000000000
      4221        49  POPC      H7X            16.1233233527       -0.3203965302        5.7280669950  MEMB      49              0.0000000000
      4222        49  POPC      H7Y            14.8211881187        0.9546602950        5.9877943592  MEMB      49              0.0000000000
      4223        49  POPC      C38            14.9917086388        0.1486067539        4.0039038891  MEMB      49              0.0000000000
      4224        49  POPC      H8X            15.8843107447        0.6062929309        3.5262992349  MEMB      49              0.0000000000
      4225        49  POPC      H8Y            14.0686791299        0.7187568748        3.7645986947  MEMB      49              0.0000000000
      4226        49  POPC      C39            14.8439671059       -1.1642082317        3.1526869256  MEMB      49              0.0000000000
      4227        49  POPC      H9X            14.7927605192       -0.8928332749        2.0765578467  MEMB      49              0.0000000000
      4228        49  POPC      H9Y            13.8495821475       -1.6196776608        3.3477951504  MEMB      49              0.0000000000
      4229        49  POPC      C310           15.9410865161       -2.2375534261        3.2764602797  MEMB      49              0.0000000000
      4230        49  POPC      H10X           15.9934980469       -2.5821177941        4.3313765121  MEMB      49              0.0000000000
      4231        49  POPC      H10Y           16.9067430593       -1.7111518484        3.1192027419  MEMB      49              0.0000000000
      4232        49  POPC      C311           15.7646208385       -3.5353040815        2.5116601402  MEMB      49              0.0000000000
      4233        49  POPC      H11X           14.9274820576       -4.1327512152        2.9318711281  MEMB      49              0.0000000000
      4234        49  POPC      H11Y           16.6726399191       -4.1729928569        2.5680098740  MEMB      49              0.0000000000
      4235        49  POPC      C312           15.4881050932       -3.3019818293        0.9902876548  MEMB      49              0.0000000000
      4236        49  POPC      H12X           14.4566560880       -2.8891510866        0.9924460784  MEMB      49              0.0000000000
      4237        49  POPC      H12Y           15.3421584127       -4.3113410100        0.5495890212  MEMB      49              0.0000000000
      4238        49  POPC      C313           16.7039156355       -2.6372731651        0.3030133792  MEMB      49              0.0000000000
      4239        49  POPC      H13X           17.5848262129       -3.2456611437        0.5999671641  MEMB      49              0.0000000000
      4240        49  POPC      H13Y           16.7476163805       -1.5989184448        0.6957350907  MEMB      49              0.0000000000
      4241        49  POPC      C314           16.6082871189       -2.6103661740       -1.2018025666  MEMB      49              0.0000000000
      4242        49  POPC      H14X           15.6149968373       -2.1648988474       -1.4237356076  MEMB      49              0.0000000000
      4243        49  POPC      H14Y           16.7007909831       -3.6285438610       -1.6366341875  MEMB      49              0.0000000000
      4244        49  POPC      C315           17.7129979008       -1.7951359368       -1.8289897029  MEMB      49              0.0000000000
      4245        49  POPC      H15X           17.5171552412       -0.7888029029       -1.4008993155  MEMB      49              0.0000000000
      4246        49  POPC      H15Y           17.5351241643       -1.6533217361       -2.9164499755  MEMB      49              0.0000000000
      4247        49  POPC      C316           19.1908175811       -2.2857779725       -1.5450721954  MEMB      49              0.0000000000
      4248        49  POPC      H16X           19.3732269127       -3.2317760936       -2.0983685489  MEMB      49              0.0000000000
      4249        49  POPC      H16Y           19.1683120140       -2.4094509827       -0.4412067022  MEMB      49              0.0000000000
      4250        49  POPC      H16Z           19.8404526674       -1.4925945307       -1.9730391173  MEMB      49              0.0000000000
      4251        50  POPC      N              10.2487805974      -16.8247423217       17.3442183443  MEMB      50              0.0000000000
      4252        50  POPC      C12            10.3389860611      -17.5208230109       18.7433111232  MEMB      50              0.0000000000
      4253        50  POPC      H12A           10.7997781138      -18.4700075144       18.5128341992  MEMB      50              0.0000000000
      4254        50  POPC      H12B            9.3163456154      -17.5873625988       19.0841614885  MEMB      50              0.0000000000
      4255        50  POPC      C13            11.5127259799      -16.7713914222       16.6512778588  MEMB      50              0.0000000000
      4256        50  POPC      H13A           11.4240199516      -16.1836871291       15.7495378745  MEMB      50              0.0000000000
      4257        50  POPC      H13B           12.1720202419      -16.2555970427       17.3336906445  MEMB      50              0.0000000000
      4258        50  POPC      H13C           11.9142484336      -17.7573666336       16.4695294029  MEMB      50              0.0000000000
      4259        50  POPC      C14             9.2005702686      -17.5342356044       16.4913223671  MEMB      50              0.0000000000
      4260        50  POPC      H14A            8.3575617149      -17.8569896033       17.0842530028  MEMB      50              0.0000000000
      4261        50  POPC      H14B            8.9220284623      -16.8602106339       15.6947644074  MEMB      50              0.0000000000
      4262        50  POPC      H14C            9.6041593831      -18.4515482578       16.0887639492  MEMB      50              0.0000000000
      4263        50  POPC      C15             9.6484815741      -15.4691789852       17.5246883612  MEMB      50              0.0000000000
      4264        50  POPC      H15A           10.3904699287      -14.9185558131       18.0838550832  MEMB      50              0.0000000000
      4265        50  POPC      H15B            8.7412696681      -15.5507430937       18.1049586323  MEMB      50              0.0000000000
      4266        50  POPC      H15C            9.5605598797      -15.0387417982       16.5380811930  MEMB      50              0.0000000000
      4267        50  POPC      C11            11.1016692266      -16.8560939683       19.8860374201  MEMB      50              0.0000000000
      4268        50  POPC      H11A           11.4874833866      -17.6084884450       20.6067114192  MEMB      50              0.0000000000
      4269        50  POPC      H11B           10.3182647635      -16.2234230278       20.3554263038  MEMB      50              0.0000000000
      4270        50  POPC      P              12.7728792631      -14.9440147498       20.5025968854  MEMB      50              0.0000000000
      4271        50  POPC      O13            12.4362995726      -15.3556356319       21.9144914214  MEMB      50              0.0000000000
      4272        50  POPC      O14            12.3367775752      -13.6193998644       20.0266507005  MEMB      50              0.0000000000
      4273        50  POPC      O12            12.2754378171      -16.0947098179       19.5007108653  MEMB      50              0.0000000000
      4274        50  POPC      O11            14.3033475048      -15.1070113410       20.4146947073  MEMB      50              0.0000000000
      4275        50  POPC      C1             15.0437851055      -15.6495188835       19.4468539598  MEMB      50              0.0000000000
      4276        50  POPC      HA             14.5361840986      -16.5233273448       18.9852037232  MEMB      50              0.0000000000
      4277        50  POPC      HB             15.9937485506      -16.0876843433       19.8208877252  MEMB      50              0.0000000000
      4278        50  POPC      C2             15.3307486179      -14.5654537780       18.3888351131  MEMB      50              0.0000000000
      4279        50  POPC      HS             15.7031755136      -13.6177218349       18.8331585551  MEMB      50              0.0000000000
      4280        50  POPC      O21            14.0422683181      -14.3033440577       17.7415354424  MEMB      50              0.0000000000
      4281        50  POPC      C21            13.8985831746      -13.0935063457       17.1919738150  MEMB      50              0.0000000000
      4282        50  POPC      O22            14.7643543969      -12.2303938634       17.3354885656  MEMB      50              0.0000000000
      4283        50  POPC      C22            12.5420477403      -12.9476953151       16.4774105871  MEMB      50              0.0000000000
      4284        50  POPC      H2R            12.2615433251      -11.9046531993       16.7376055302  MEMB      50              0.0000000000
      4285        50  POPC      H2S            11.8030954583      -13.6693163299       16.8867193625  MEMB      50              0.0000000000
      4286        50  POPC      C3             16.3376933528      -14.9541445507       17.2808095115  MEMB      50              0.0000000000
      4287        50  POPC      HX             17.2110024274      -15.4619240859       17.7432082292  MEMB      50              0.0000000000
      4288        50  POPC      HY             16.7260280082      -13.9998819752       16.8649966063  MEMB      50              0.0000000000
      4289        50  POPC      O31            15.7942124910      -15.8691076819       16.3723166829  MEMB      50              0.0000000000
      4290        50  POPC      C31            15.9539258458      -15.6168166553       15.1200146568  MEMB      50              0.0000000000
      4291        50  POPC      O32            16.6339295162      -14.7231853671       14.6466944558  MEMB      50              0.0000000000
      4292        50  POPC      C32            15.3583989505      -16.7454101645       14.2531179523  MEMB      50              0.0000000000
      4293        50  POPC      H2X            14.5303362830      -17.2047387694       14.8341951161  MEMB      50              0.0000000000
      4294        50  POPC      H2Y            16.1282282326      -17.4310471410       13.8388888786  MEMB      50              0.0000000000
      4295        50  POPC      C23            12.6976236535      -13.3385263838       14.9897116531  MEMB      50              0.0000000000
      4296        50  POPC      H3R            13.0068748639      -14.4022854363       14.9054412532  MEMB      50              0.0000000000
      4297        50  POPC      H3S            13.5189263376      -12.7504423015       14.5271750831  MEMB      50              0.0000000000
      4298        50  POPC      C24            11.3736540100      -13.2457991451       14.3354565241  MEMB      50              0.0000000000
      4299        50  POPC      H4R            11.1282106941      -12.1719244138       14.1909853322  MEMB      50              0.0000000000
      4300        50  POPC      H4S            10.6292350570      -13.6953310457       15.0268913588  MEMB      50              0.0000000000
      4301        50  POPC      C25            11.3138508153      -14.0795123380       13.0515099523  MEMB      50              0.0000000000
      4302        50  POPC      H5R            11.4375364692      -15.1366143868       13.3701916970  MEMB      50              0.0000000000
      4303        50  POPC      H5S            12.1526338164      -13.7969590159       12.3799981673  MEMB      50              0.0000000000
      4304        50  POPC      C26            10.0491992333      -13.7786462751       12.3806910668  MEMB      50              0.0000000000
      4305        50  POPC      H6R             9.9696479074      -12.8530176940       11.7714254467  MEMB      50              0.0000000000
      4306        50  POPC      H6S             9.1790721958      -13.6343456916       13.0562478057  MEMB      50              0.0000000000
      4307        50  POPC      C27             9.5571498077      -14.8651680151       11.3763601298  MEMB      50              0.0000000000
      4308        50  POPC      H7R             8.5667870848      -14.4172028877       11.1465124456  MEMB      50              0.0000000000
      4309        50  POPC      H7S             9.4038896310      -15.7313810139       12.0549671934  MEMB      50              0.0000000000
      4310        50  POPC      C28            10.5113238606      -15.1132117267       10.1967708549  MEMB      50              0.0000000000
      4311        50  POPC      H8R            11.3806378682      -15.6763281205       10.5986595731  MEMB      50              0.0000000000
      4312        50  POPC      H8S            10.8993333919      -14.1209862756        9.8817181020  MEMB      50              0.0000000000
      4313        50  POPC      C29             9.9098415749      -15.9050672904        9.1427051292  MEMB      50              0.0000000000
      4314        50  POPC      H91             9.8240386306      -16.9956882811        9.2575257328  MEMB      50              0.0000000000
      4315        50  POPC      C210            9.7424582120      -15.4322388012        7.9134691288  MEMB      50              0.0000000000
      4316        50  POPC      H101            9.3503321066      -16.0680642932        7.1060272626  MEMB      50              0.0000000000
      4317        50  POPC      C211           10.1789877865      -14.0280026880        7.3926775302  MEMB      50              0.0000000000
      4318        50  POPC      H11R           11.1470895520      -14.1530027811        6.8621359815  MEMB      50              0.0000000000
      4319        50  POPC      H11S           10.3936802523      -13.2627677619        8.1689794825  MEMB      50              0.0000000000
      4320        50  POPC      C212            9.1434556379      -13.4390010785        6.3686017697  MEMB      50              0.0000000000
      4321        50  POPC      H12R            8.1423155262      -13.4743667169        6.8490069675  MEMB      50              0.0000000000
      4322        50  POPC      H12S            9.4081138823      -14.1662918220        5.5715295621  MEMB      50              0.0000000000
      4323        50  POPC      C213            9.5286983446      -11.9616837077        5.9093801707  MEMB      50              0.0000000000
      4324        50  POPC      H13R            9.7863032051      -11.2840645245        6.7512776145  MEMB      50              0.0000000000
      4325        50  POPC      H13S            8.5857658887      -11.6094446019        5.4391386966  MEMB      50              0.0000000000
      4326        50  POPC      C214           10.8305162263      -12.0682827367        5.0659511662  MEMB      50              0.0000000000
      4327        50  POPC      H14R           10.6272569549      -12.7171471587        4.1873259560  MEMB      50              0.0000000000
      4328        50  POPC      H14S           11.7159201197      -12.5089556770        5.5721006599  MEMB      50              0.0000000000
      4329        50  POPC      C215           11.2307399170      -10.7492350856        4.4625337252  MEMB      50              0.0000000000
      4330        50  POPC      H15R           11.7668826129      -10.1444406898        5.2248306615  MEMB      50              0.0000000000
      4331        50  POPC      H15S           10.3380534593      -10.1573130937        4.1674737305  MEMB      50              0.0000000000
      4332        50  POPC      C216           12.1548937117      -10.9406262712        3.1921099806  MEMB      50              0.0000000000
      4333        50  POPC      H16R           12.4778130681       -9.9059509286        2.9482037481  MEMB      50              0.0000000000
      4334        50  POPC      H16S           11.6594660264      -11.2816692902        2.2579994852  MEMB      50              0.0000000000
      4335        50  POPC      C217           13.4942220975      -11.6068596589        3.3847745664  MEMB      50              0.0000000000
      4336        50  POPC      H17R           13.4290905404      -12.4177327277        4.1414538993  MEMB      50              0.0000000000
      4337        50  POPC      H17S           14.2329473465      -10.8788596388        3.7830476917  MEMB      50              0.0000000000
      4338        50  POPC      C218           13.9836790553      -12.2366998203        2.0437842143  MEMB      50              0.0000000000
      4339        50  POPC      H18R           13.9556989803      -11.4095559230        1.3025891139  MEMB      50              0.0000000000
      4340        50  POPC      H18S           13.2845528781      -13.0142803391        1.6684016715  MEMB      50              0.0000000000
      4341        50  POPC      H18T           15.0053471123      -12.6543521982        2.1705976150  MEMB      50              0.0000000000
      4342        50  POPC      C33            14.7520204692      -16.1503624206       12.9751166830  MEMB      50              0.0000000000
      4343        50  POPC      H3X            15.5465318214      -15.6437757696       12.3865231470  MEMB      50              0.0000000000
      4344        50  POPC      H3Y            13.9865267250      -15.4535492639       13.3785917456  MEMB      50              0.0000000000
      4345        50  POPC      C34            13.8805837144      -17.2426057202       12.2105829148  MEMB      50              0.0000000000
      4346        50  POPC      H4X            13.2221930673      -16.6860021996       11.5098441664  MEMB      50              0.0000000000
      4347        50  POPC      H4Y            13.3366204599      -17.7490334044       13.0363896133  MEMB      50              0.0000000000
      4348        50  POPC      C35            14.5692578480      -18.3374715929       11.3910426732  MEMB      50              0.0000000000
      4349        50  POPC      H5X            15.1389590258      -19.0234295586       12.0537816896  MEMB      50              0.0000000000
      4350        50  POPC      H5Y            15.3817970336      -17.7978302054       10.8591700613  MEMB      50              0.0000000000
      4351        50  POPC      C36            13.5762715299      -19.1486861180       10.5356926998  MEMB      50              0.0000000000
      4352        50  POPC      H6X            12.8137191545      -19.5636166168       11.2289949654  MEMB      50              0.0000000000
      4353        50  POPC      H6Y            14.0676105154      -20.0576804695       10.1274813750  MEMB      50              0.0000000000
      4354        50  POPC      C37            12.9264543921      -18.3898662364        9.3377163087  MEMB      50              0.0000000000
      4355        50  POPC      H7X            12.1562209769      -17.7010929703        9.7459477245  MEMB      50              0.0000000000
      4356        50  POPC      H7Y            12.5403471326      -19.2070169933        8.6915683837  MEMB      50              0.0000000000
      4357        50  POPC      C38            13.9514837477      -17.4464444375        8.6568139340  MEMB      50              0.0000000000
      4358        50  POPC      H8X            14.8325348627      -18.0206409199        8.2985282590  MEMB      50              0.0000000000
      4359        50  POPC      H8Y            14.2501813731      -16.6936253425        9.4173164803  MEMB      50              0.0000000000
      4360        50  POPC      C39            13.3865717577      -16.7652220511        7.4157573918  MEMB      50              0.0000000000
      4361        50  POPC      H9X            12.6073023921      -16.0455173531        7.7460381380  MEMB      50              0.0000000000
      4362        50  POPC      H9Y            12.9829988444      -17.4455907940        6.6356621695  MEMB      50              0.0000000000
      4363        50  POPC      C310           14.4732221216      -15.9418864702        6.7904433341  MEMB      50              0.0000000000
      4364        50  POPC      H10X           15.3471872078      -16.6209367674        6.6935057860  MEMB      50              0.0000000000
      4365        50  POPC      H10Y           14.8325270447      -15.1558609830        7.4885735087  MEMB      50              0.0000000000
      4366        50  POPC      C311           14.1105580020      -15.2086224763        5.4538996691  MEMB      50              0.0000000000
      4367        50  POPC      H11X           15.0633662711      -14.9468336715        4.9460176202  MEMB      50              0.0000000000
      4368        50  POPC      H11Y           13.7309844793      -14.2301533413        5.8183762099  MEMB      50              0.0000000000
      4369        50  POPC      C312           13.1858426091      -16.0082474609        4.4707081174  MEMB      50              0.0000000000
      4370        50  POPC      H12X           12.9843723262      -15.3491182423        3.5993416674  MEMB      50              0.0000000000
      4371        50  POPC      H12Y           12.1920537062      -16.2067472479        4.9260126350  MEMB      50              0.0000000000
      4372        50  POPC      C313           13.8815070376      -17.2986557470        4.0025449868  MEMB      50              0.0000000000
      4373        50  POPC      H13X           13.6467212394      -18.1082956022        4.7262023027  MEMB      50              0.0000000000
      4374        50  POPC      H13Y           14.9861500575      -17.3097615662        3.8843876852  MEMB      50              0.0000000000
      4375        50  POPC      C314           13.4329345480      -17.6107720464        2.5679021384  MEMB      50              0.0000000000
      4376        50  POPC      H14X           13.8772065466      -16.9142982552        1.8250227604  MEMB      50              0.0000000000
      4377        50  POPC      H14Y           12.3447965643      -17.3868345273        2.5792508317  MEMB      50              0.0000000000
      4378        50  POPC      C315           13.5843812648      -19.0834797837        2.1819663900  MEMB      50              0.0000000000
      4379        50  POPC      H15X           13.0161128510      -19.1925090638        1.2335437013  MEMB      50              0.0000000000
      4380        50  POPC      H15Y           12.9928728322      -19.6417221853        2.9388039970  MEMB      50              0.0000000000
      4381        50  POPC      C316           15.0453336845      -19.5972022599        2.1224529057  MEMB      50              0.0000000000
      4382        50  POPC      H16X           15.5980475340      -19.6825374231        3.0824257478  MEMB      50              0.0000000000
      4383        50  POPC      H16Y           15.6294875843      -18.8243522434        1.5785901187  MEMB      50              0.0000000000
      4384        50  POPC      H16Z           15.0121110635      -20.5615235720        1.5717239866  MEMB      50              0.0000000000
      4385        51  POPC      N              26.4160050081       14.0258815952       21.0535599649  MEMB      51              0.0000000000
      4386        51  POPC      C12            27.5096622687       13.1289488283       20.5007593553  MEMB      51              0.0000000000
      4387        51  POPC      H12A           27.4269708334       12.1541380817       20.9582592665  MEMB      51              0.0000000000
      4388        51  POPC      H12B           28.4498804520       13.5643539021       20.8054103699  MEMB      51              0.0000000000
      4389        51  POPC      C13            26.3656550531       13.9670192095       22.5822557653  MEMB      51              0.0000000000
      4390        51  POPC      H13A           26.1463513975       12.9829099596       22.9693411285  MEMB      51              0.0000000000
      4391        51  POPC      H13B           27.3619958075       14.2665458115       22.8720639976  MEMB      51              0.0000000000
      4392        51  POPC      H13C           25.6359883227       14.7108070189       22.8664497821  MEMB      51              0.0000000000
      4393        51  POPC      C14            26.6606139269       15.3982818264       20.5735184329  MEMB      51              0.0000000000
      4394        51  POPC      H14A           26.8586463035       15.5408206298       19.5214414984  MEMB      51              0.0000000000
      4395        51  POPC      H14B           25.7958844523       15.9791784252       20.8584780166  MEMB      51              0.0000000000
      4396        51  POPC      H14C           27.5157915306       15.8419201849       21.0616333566  MEMB      51              0.0000000000
      4397        51  POPC      C15            25.0565635565       13.5097098229       20.5484718984  MEMB      51              0.0000000000
      4398        51  POPC      H15A           24.2536133337       13.9901834057       21.0877454705  MEMB      51              0.0000000000
      4399        51  POPC      H15B           24.9889597784       12.4323973377       20.5835101877  MEMB      51              0.0000000000
      4400        51  POPC      H15C           24.8978787741       13.8644090248       19.5407975835  MEMB      51              0.0000000000
      4401        51  POPC      C11            27.6899690832       12.9904351033       18.9771522486  MEMB      51              0.0000000000
      4402        51  POPC      H11A           26.8393328592       12.4177234520       18.5496709026  MEMB      51              0.0000000000
      4403        51  POPC      H11B           28.6572102324       12.4908116281       18.7554724894  MEMB      51              0.0000000000
      4404        51  POPC      P              27.5736976211       14.5775952612       16.8804636923  MEMB      51              0.0000000000
      4405        51  POPC      O13            28.5164435587       13.7299930618       16.1381235675  MEMB      51              0.0000000000
      4406        51  POPC      O14            27.5183442658       16.0635810471       16.5982836780  MEMB      51              0.0000000000
      4407        51  POPC      O12            27.8610861916       14.2899517685       18.4450746906  MEMB      51              0.0000000000
      4408        51  POPC      O11            26.1039432144       13.9834447106       16.7023367060  MEMB      51              0.0000000000
      4409        51  POPC      C1             24.9794950752       14.7901912408       16.2997593784  MEMB      51              0.0000000000
      4410        51  POPC      HA             25.0872770386       15.8679666303       16.0525664727  MEMB      51              0.0000000000
      4411        51  POPC      HB             24.1978995700       14.7437697696       17.0879689797  MEMB      51              0.0000000000
      4412        51  POPC      C2             24.3186147323       14.0782197524       15.0294579342  MEMB      51              0.0000000000
      4413        51  POPC      HS             23.3837881392       13.6007562710       15.3933930713  MEMB      51              0.0000000000
      4414        51  POPC      O21            25.3181400276       13.1930350096       14.5594226640  MEMB      51              0.0000000000
      4415        51  POPC      C21            24.8616166780       12.2512841075       13.7476535289  MEMB      51              0.0000000000
      4416        51  POPC      O22            23.6821255048       12.1075689063       13.3997044296  MEMB      51              0.0000000000
      4417        51  POPC      C22            25.9926891479       11.4749929182       13.1535569454  MEMB      51              0.0000000000
      4418        51  POPC      H2R            26.1417246698       10.5652073517       13.7735569222  MEMB      51              0.0000000000
      4419        51  POPC      H2S            26.9377484831       12.0557255356       13.0908383411  MEMB      51              0.0000000000
      4420        51  POPC      C3             24.0466316488       15.1613523007       13.9427490613  MEMB      51              0.0000000000
      4421        51  POPC      HX             23.2757919121       15.7991101306       14.4258554276  MEMB      51              0.0000000000
      4422        51  POPC      HY             23.5476190661       14.6657413777       13.0827041571  MEMB      51              0.0000000000
      4423        51  POPC      O31            25.2261473879       15.8315717520       13.5562886062  MEMB      51              0.0000000000
      4424        51  POPC      C31            25.7165921250       15.5930607241       12.3630329423  MEMB      51              0.0000000000
      4425        51  POPC      O32            25.3979176627       14.6324715197       11.6445685895  MEMB      51              0.0000000000
      4426        51  POPC      C32            26.7075955937       16.6986725009       12.1755671481  MEMB      51              0.0000000000
      4427        51  POPC      H2X            27.5063971005       16.5708683545       12.9370807478  MEMB      51              0.0000000000
      4428        51  POPC      H2Y            26.2530846894       17.6879831754       12.3969372974  MEMB      51              0.0000000000
      4429        51  POPC      C23            25.4227499016       10.9450979069       11.8138886121  MEMB      51              0.0000000000
      4430        51  POPC      H3R            24.8032501172       11.7038063536       11.2895773886  MEMB      51              0.0000000000
      4431        51  POPC      H3S            24.8387781635       10.0166127930       11.9905622963  MEMB      51              0.0000000000
      4432        51  POPC      C24            26.5845616196       10.4327291652       10.8818458794  MEMB      51              0.0000000000
      4433        51  POPC      H4R            26.0571779151        9.7645574908       10.1678898774  MEMB      51              0.0000000000
      4434        51  POPC      H4S            27.2843225763        9.9911929751       11.6232648400  MEMB      51              0.0000000000
      4435        51  POPC      C25            27.4522930919       11.5121002167       10.2479273906  MEMB      51              0.0000000000
      4436        51  POPC      H5R            28.2232046545       10.9335705353        9.6953692370  MEMB      51              0.0000000000
      4437        51  POPC      H5S            28.0592754558       12.0942018080       10.9739102839  MEMB      51              0.0000000000
      4438        51  POPC      C26            26.8530144414       12.5848569830        9.3853595120  MEMB      51              0.0000000000
      4439        51  POPC      H6R            27.5991266859       13.3285650030        9.0324634980  MEMB      51              0.0000000000
      4440        51  POPC      H6S            26.0995174682       13.2428536326        9.8686850571  MEMB      51              0.0000000000
      4441        51  POPC      C27            26.1547334219       12.0701741721        8.0783418917  MEMB      51              0.0000000000
      4442        51  POPC      H7R            25.2410175924       11.4790551506        8.3019992692  MEMB      51              0.0000000000
      4443        51  POPC      H7S            26.8611273270       11.3344043803        7.6379196462  MEMB      51              0.0000000000
      4444        51  POPC      C28            25.7485889538       13.0760093525        7.0067716360  MEMB      51              0.0000000000
      4445        51  POPC      H8R            25.7750885428       12.6985327519        5.9621999812  MEMB      51              0.0000000000
      4446        51  POPC      H8S            26.5720986060       13.8207082996        6.9670684377  MEMB      51              0.0000000000
      4447        51  POPC      C29            24.4270637060       13.7690970589        7.2129428446  MEMB      51              0.0000000000
      4448        51  POPC      H91            23.6834757992       13.1711740578        7.7602689190  MEMB      51              0.0000000000
      4449        51  POPC      C210           24.2681208507       15.0705818343        6.7930264859  MEMB      51              0.0000000000
      4450        51  POPC      H101           23.3611898044       15.6520568259        7.0152041811  MEMB      51              0.0000000000
      4451        51  POPC      C211           25.3769452347       15.9087670645        6.1154809559  MEMB      51              0.0000000000
      4452        51  POPC      H11R           26.0213663510       15.2752878374        5.4691478558  MEMB      51              0.0000000000
      4453        51  POPC      H11S           26.1366810669       16.2424088781        6.8542672195  MEMB      51              0.0000000000
      4454        51  POPC      C212           24.8520756773       17.0688412054        5.2922846785  MEMB      51              0.0000000000
      4455        51  POPC      H12R           24.1275907096       17.6477396568        5.9041010487  MEMB      51              0.0000000000
      4456        51  POPC      H12S           24.2295609987       16.8022616255        4.4115279132  MEMB      51              0.0000000000
      4457        51  POPC      C213           25.9671652756       18.0261380650        4.7848650476  MEMB      51              0.0000000000
      4458        51  POPC      H13R           26.4365994881       18.2620736465        5.7637871310  MEMB      51              0.0000000000
      4459        51  POPC      H13S           25.5742696553       18.9549180200        4.3186871751  MEMB      51              0.0000000000
      4460        51  POPC      C214           27.0243683826       17.4651488116        3.8405681606  MEMB      51              0.0000000000
      4461        51  POPC      H14R           27.4440812303       16.5485702165        4.3075212155  MEMB      51              0.0000000000
      4462        51  POPC      H14S           27.9438654206       18.0688742858        3.6844866818  MEMB      51              0.0000000000
      4463        51  POPC      C215           26.4000843888       17.1579065875        2.4490571315  MEMB      51              0.0000000000
      4464        51  POPC      H15R           25.9325372414       17.9915084761        1.8826385014  MEMB      51              0.0000000000
      4465        51  POPC      H15S           25.5158856520       16.5094546345        2.6280083623  MEMB      51              0.0000000000
      4466        51  POPC      C216           27.4665342983       16.3761572533        1.6548535087  MEMB      51              0.0000000000
      4467        51  POPC      H16R           27.8323976104       15.5270876672        2.2709249833  MEMB      51              0.0000000000
      4468        51  POPC      H16S           28.2693896054       17.1382512779        1.5602127856  MEMB      51              0.0000000000
      4469        51  POPC      C217           27.1718945989       15.7814138634        0.2306418251  MEMB      51              0.0000000000
      4470        51  POPC      H17R           26.6115912798       16.5220935085       -0.3790909514  MEMB      51              0.0000000000
      4471        51  POPC      H17S           26.5469324796       14.8763436223        0.3874585423  MEMB      51              0.0000000000
      4472        51  POPC      C218           28.5056527667       15.3329670093       -0.4529620084  MEMB      51              0.0000000000
      4473        51  POPC      H18R           28.3518712871       14.8181041890       -1.4253764180  MEMB      51              0.0000000000
      4474        51  POPC      H18S           28.9563253439       14.6435980072        0.2926811677  MEMB      51              0.0000000000
      4475        51  POPC      H18T           29.2328574657       16.1494865857       -0.6499156781  MEMB      51              0.0000000000
      4476        51  POPC      C33            27.3573453453       16.7101186706       10.7986323190  MEMB      51              0.0000000000
      4477        51  POPC      H3X            26.7889133233       17.4641829270       10.2133173372  MEMB      51              0.0000000000
      4478        51  POPC      H3Y            27.2015018652       15.7369939806       10.2857367481  MEMB      51              0.0000000000
      4479        51  POPC      C34            28.8186973571       17.1499046960       10.7875310492  MEMB      51              0.0000000000
      4480        51  POPC      H4X            29.4601455858       16.3448258407       11.2055177714  MEMB      51              0.0000000000
      4481        51  POPC      H4Y            28.9163367566       17.9682536756       11.5325765526  MEMB      51              0.0000000000
      4482        51  POPC      C35            29.3657476504       17.5875555726        9.3996524319  MEMB      51              0.0000000000
      4483        51  POPC      H5X            30.3431669190       18.0962895647        9.5416496816  MEMB      51              0.0000000000
      4484        51  POPC      H5Y            28.6475221813       18.3819989059        9.1041318150  MEMB      51              0.0000000000
      4485        51  POPC      C36            29.2933957221       16.4705008560        8.3390873385  MEMB      51              0.0000000000
      4486        51  POPC      H6X            28.2714795587       16.0413678085        8.2625770161  MEMB      51              0.0000000000
      4487        51  POPC      H6Y            29.9158031608       15.5997958592        8.6370856440  MEMB      51              0.0000000000
      4488        51  POPC      C37            29.7610013759       16.9285603255        6.9339416115  MEMB      51              0.0000000000
      4489        51  POPC      H7X            30.8410792496       17.1800172212        7.0011901540  MEMB      51              0.0000000000
      4490        51  POPC      H7Y            29.2756854258       17.8927923138        6.6711750302  MEMB      51              0.0000000000
      4491        51  POPC      C38            29.6269293963       15.9535358092        5.7284508148  MEMB      51              0.0000000000
      4492        51  POPC      H8X            29.6967670106       16.5701766352        4.8069315618  MEMB      51              0.0000000000
      4493        51  POPC      H8Y            28.5767248811       15.5941521356        5.6811778984  MEMB      51              0.0000000000
      4494        51  POPC      C39            30.4634995022       14.6602733199        5.8087116986  MEMB      51              0.0000000000
      4495        51  POPC      H9X            30.2946595203       13.9783981405        6.6694441549  MEMB      51              0.0000000000
      4496        51  POPC      H9Y            31.5325906477       14.9619670373        5.8272970204  MEMB      51              0.0000000000
      4497        51  POPC      C310           30.2463426545       13.6789079783        4.6405906088  MEMB      51              0.0000000000
      4498        51  POPC      H10X           30.9869937474       12.8810231073        4.8622592665  MEMB      51              0.0000000000
      4499        51  POPC      H10Y           30.5299837897       14.2410153762        3.7252197763  MEMB      51              0.0000000000
      4500        51  POPC      C311           28.8874020711       12.9624908044        4.6180526170  MEMB      51              0.0000000000
      4501        51  POPC      H11X           28.1434444154       13.7567302701        4.8417308808  MEMB      51              0.0000000000
      4502        51  POPC      H11Y           28.7677986907       12.1099256323        5.3202976788  MEMB      51              0.0000000000
      4503        51  POPC      C312           28.5300714429       12.3419183361        3.2280643463  MEMB      51              0.0000000000
      4504        51  POPC      H12X           29.2285621836       11.4784435390        3.1990250579  MEMB      51              0.0000000000
      4505        51  POPC      H12Y           28.8016386108       13.0133082143        2.3855626646  MEMB      51              0.0000000000
      4506        51  POPC      C313           27.1337683468       11.8809087038        3.1012055509  MEMB      51              0.0000000000
      4507        51  POPC      H13X           26.9576496522       11.3339554957        4.0520706379  MEMB      51              0.0000000000
      4508        51  POPC      H13Y           27.0766733138       11.0110910632        2.4123808080  MEMB      51              0.0000000000
      4509        51  POPC      C314           26.0885563077       12.9519573762        2.7804370123  MEMB      51              0.0000000000
      4510        51  POPC      H14X           26.5048904552       13.3694583020        1.8388004365  MEMB      51              0.0000000000
      4511        51  POPC      H14Y           25.9730282385       13.8012772693        3.4872827535  MEMB      51              0.0000000000
      4512        51  POPC      C315           24.7587670502       12.3400567569        2.4002041550  MEMB      51              0.0000000000
      4513        51  POPC      H15X           24.2540019823       11.8571656050        3.2641193532  MEMB      51              0.0000000000
      4514        51  POPC      H15Y           24.8109906067       11.4805099994        1.6982258620  MEMB      51              0.0000000000
      4515        51  POPC      C316           23.7724411831       13.4259224665        1.8226781735  MEMB      51              0.0000000000
      4516        51  POPC      H16X           23.6694990471       14.2252406736        2.5874086206  MEMB      51              0.0000000000
      4517        51  POPC      H16Y           22.7598641835       13.0868433772        1.5160283369  MEMB      51              0.0000000000
      4518        51  POPC      H16Z           24.1825779720       13.8830415357        0.8968530596  MEMB      51              0.0000000000
      4519        52  POPC      N               8.7407581782      -23.3310259829       19.2785327861  MEMB      52              0.0000000000
      4520        52  POPC      C12             7.5439419083      -23.6528320451       20.2205855138  MEMB      52              0.0000000000
      4521        52  POPC      H12A            7.9643523009      -23.8502452771       21.1956153928  MEMB      52              0.0000000000
      4522        52  POPC      H12B            7.3168833614      -24.6964649674       20.0603520956  MEMB      52              0.0000000000
      4523        52  POPC      C13             8.4101015434      -22.8116002766       17.9474328748  MEMB      52              0.0000000000
      4524        52  POPC      H13A            7.7286330828      -23.4293932883       17.3814537701  MEMB      52              0.0000000000
      4525        52  POPC      H13B            7.9057436148      -21.8692410015       18.1022943105  MEMB      52              0.0000000000
      4526        52  POPC      H13C            9.2675119711      -22.5587819417       17.3413549850  MEMB      52              0.0000000000
      4527        52  POPC      C14             9.5818809788      -22.2172024257       19.9556955252  MEMB      52              0.0000000000
      4528        52  POPC      H14A            9.1895884120      -21.2857290330       20.3363054898  MEMB      52              0.0000000000
      4529        52  POPC      H14B            9.9876958949      -22.7394144255       20.8095156227  MEMB      52              0.0000000000
      4530        52  POPC      H14C           10.3605833422      -21.8708207040       19.2923389847  MEMB      52              0.0000000000
      4531        52  POPC      C15             9.5728413888      -24.6281320443       19.0499983658  MEMB      52              0.0000000000
      4532        52  POPC      H15A           10.4152962800      -24.3818296423       18.4207091060  MEMB      52              0.0000000000
      4533        52  POPC      H15B            8.8672264582      -25.3052624699       18.5917386136  MEMB      52              0.0000000000
      4534        52  POPC      H15C            9.8215083799      -25.0774786259       20.0000785033  MEMB      52              0.0000000000
      4535        52  POPC      C11             6.3408872531      -22.6271195482       20.1225828543  MEMB      52              0.0000000000
      4536        52  POPC      H11A            6.8384859655      -21.6474568420       20.2868312265  MEMB      52              0.0000000000
      4537        52  POPC      H11B            5.6315970374      -22.9018257882       20.9323759784  MEMB      52              0.0000000000
      4538        52  POPC      P               4.5353929609      -21.6170463012       18.4598134350  MEMB      52              0.0000000000
      4539        52  POPC      O13             4.8443628735      -21.1516874696       17.0745370212  MEMB      52              0.0000000000
      4540        52  POPC      O14             4.4035530375      -20.6632605731       19.5417284317  MEMB      52              0.0000000000
      4541        52  POPC      O12             5.6649461778      -22.6408286824       18.8586257254  MEMB      52              0.0000000000
      4542        52  POPC      O11             3.1732694695      -22.4738888820       18.4904674443  MEMB      52              0.0000000000
      4543        52  POPC      C1              2.8597953550      -23.5562584775       19.3364213064  MEMB      52              0.0000000000
      4544        52  POPC      HA              1.8228364640      -23.4076290741       19.7064834813  MEMB      52              0.0000000000
      4545        52  POPC      HB              3.4914896333      -23.6948750673       20.2397866284  MEMB      52              0.0000000000
      4546        52  POPC      C2              2.7838779181      -24.8756218260       18.5114147005  MEMB      52              0.0000000000
      4547        52  POPC      HS              2.4052856019      -25.7027852026       19.1492151222  MEMB      52              0.0000000000
      4548        52  POPC      O21             3.9631215416      -25.1709740402       17.8776870041  MEMB      52              0.0000000000
      4549        52  POPC      C21             4.7912969516      -25.8949319906       18.6859792713  MEMB      52              0.0000000000
      4550        52  POPC      O22             4.6209938651      -26.1851980210       19.8632200304  MEMB      52              0.0000000000
      4551        52  POPC      C22             6.1112330704      -26.2458234925       17.9455516515  MEMB      52              0.0000000000
      4552        52  POPC      H2R             6.3238264477      -27.2598114158       18.3467411851  MEMB      52              0.0000000000
      4553        52  POPC      H2S             6.8448069141      -25.5367492894       18.3853290841  MEMB      52              0.0000000000
      4554        52  POPC      C3              1.7933672019      -24.9391770109       17.3557148545  MEMB      52              0.0000000000
      4555        52  POPC      HX              0.7550458971      -24.8090040027       17.7288972983  MEMB      52              0.0000000000
      4556        52  POPC      HY              1.8979129369      -25.8885022042       16.7881121089  MEMB      52              0.0000000000
      4557        52  POPC      O31             1.9897003027      -23.7911019785       16.4572543604  MEMB      52              0.0000000000
      4558        52  POPC      C31             2.3231247228      -23.9854166769       15.2206033019  MEMB      52              0.0000000000
      4559        52  POPC      O32             2.6464124669      -24.9931372159       14.6844747717  MEMB      52              0.0000000000
      4560        52  POPC      C32             2.1547709139      -22.6594987746       14.4043998120  MEMB      52              0.0000000000
      4561        52  POPC      H2X             2.2085683459      -21.7853845624       15.0880310876  MEMB      52              0.0000000000
      4562        52  POPC      H2Y             1.1841228246      -22.5408824047       13.8770550462  MEMB      52              0.0000000000
      4563        52  POPC      C23             6.0992467902      -26.2735058359       16.4622147933  MEMB      52              0.0000000000
      4564        52  POPC      H3R             5.7031324041      -25.3958268975       15.9080535273  MEMB      52              0.0000000000
      4565        52  POPC      H3S             5.5327394749      -27.1928773370       16.2011670526  MEMB      52              0.0000000000
      4566        52  POPC      C24             7.4361109314      -26.5575405213       15.8383219382  MEMB      52              0.0000000000
      4567        52  POPC      H4R             7.8942405155      -27.4112757420       16.3819901679  MEMB      52              0.0000000000
      4568        52  POPC      H4S             8.1486288413      -25.7136969492       15.9590173737  MEMB      52              0.0000000000
      4569        52  POPC      C25             7.3954849864      -26.8429867672       14.3506727643  MEMB      52              0.0000000000
      4570        52  POPC      H5R             6.8145897605      -27.7829022724       14.2347411351  MEMB      52              0.0000000000
      4571        52  POPC      H5S             8.4520302236      -27.0664310635       14.0897016453  MEMB      52              0.0000000000
      4572        52  POPC      C26             6.8701626805      -25.7663668275       13.4616708859  MEMB      52              0.0000000000
      4573        52  POPC      H6R             7.2353342668      -24.7632187896       13.7693471862  MEMB      52              0.0000000000
      4574        52  POPC      H6S             5.7611098156      -25.8289696653       13.4817650953  MEMB      52              0.0000000000
      4575        52  POPC      C27             7.3647355252      -26.0448053206       11.9521898320  MEMB      52              0.0000000000
      4576        52  POPC      H7R             7.2037494029      -27.1250309763       11.7484317183  MEMB      52              0.0000000000
      4577        52  POPC      H7S             8.4392989996      -25.7722588712       11.8790273716  MEMB      52              0.0000000000
      4578        52  POPC      C28             6.5863901280      -25.1436356039       10.9125778273  MEMB      52              0.0000000000
      4579        52  POPC      H8R             5.5405714418      -25.5133279436       10.8500331806  MEMB      52              0.0000000000
      4580        52  POPC      H8S             6.9614253046      -25.3667112104        9.8908601192  MEMB      52              0.0000000000
      4581        52  POPC      C29             6.5392401817      -23.6571520071       11.0501931524  MEMB      52              0.0000000000
      4582        52  POPC      H91             5.8204981937      -23.3374938982       11.8191070679  MEMB      52              0.0000000000
      4583        52  POPC      C210            7.2663923364      -22.7746506910       10.4351546014  MEMB      52              0.0000000000
      4584        52  POPC      H101            7.0883962286      -21.7075661056       10.6342722503  MEMB      52              0.0000000000
      4585        52  POPC      C211            8.3074611041      -23.0535728844        9.4565030530  MEMB      52              0.0000000000
      4586        52  POPC      H11R            8.5703202306      -24.1327018664        9.4299180651  MEMB      52              0.0000000000
      4587        52  POPC      H11S            9.2064361464      -22.4838249929        9.7751749513  MEMB      52              0.0000000000
      4588        52  POPC      C212            7.9311580947      -22.5851044622        8.0128931616  MEMB      52              0.0000000000
      4589        52  POPC      H12R            7.6999888879      -21.5009235483        7.9391797230  MEMB      52              0.0000000000
      4590        52  POPC      H12S            7.0033178503      -23.1442716740        7.7663866682  MEMB      52              0.0000000000
      4591        52  POPC      C213            8.9923814707      -22.8201893920        7.0292437182  MEMB      52              0.0000000000
      4592        52  POPC      H13R            9.2862129211      -23.8910747009        6.9947629448  MEMB      52              0.0000000000
      4593        52  POPC      H13S            9.8878071294      -22.2808899155        7.4056608986  MEMB      52              0.0000000000
      4594        52  POPC      C214            8.6870194266      -22.4322598940        5.6502164083  MEMB      52              0.0000000000
      4595        52  POPC      H14R            8.3401945721      -21.3767823062        5.6494705080  MEMB      52              0.0000000000
      4596        52  POPC      H14S            7.8332007324      -23.0317372288        5.2681934937  MEMB      52              0.0000000000
      4597        52  POPC      C215            9.8154670767      -22.5185522522        4.6862386767  MEMB      52              0.0000000000
      4598        52  POPC      H15R           10.1815183730      -23.5576141355        4.8300387255  MEMB      52              0.0000000000
      4599        52  POPC      H15S           10.5952921265      -21.8044641910        5.0272253237  MEMB      52              0.0000000000
      4600        52  POPC      C216            9.5257656538      -22.4516760758        3.1773863158  MEMB      52              0.0000000000
      4601        52  POPC      H16R            9.3356908923      -23.4091377102        2.6468593106  MEMB      52              0.0000000000
      4602        52  POPC      H16S           10.5041655168      -22.3453820276        2.6618710848  MEMB      52              0.0000000000
      4603        52  POPC      C217            8.7507282476      -21.2947290527        2.5580795754  MEMB      52              0.0000000000
      4604        52  POPC      H17R            9.3599204302      -20.3674806031        2.6165271243  MEMB      52              0.0000000000
      4605        52  POPC      H17S            7.8013311427      -21.1605592200        3.1192962062  MEMB      52              0.0000000000
      4606        52  POPC      C218            8.3965658639      -21.5701498335        1.0392198803  MEMB      52              0.0000000000
      4607        52  POPC      H18R            7.6903152176      -22.4151228489        0.8924155217  MEMB      52              0.0000000000
      4608        52  POPC      H18S            9.3460890102      -21.9396121400        0.5962492553  MEMB      52              0.0000000000
      4609        52  POPC      H18T            8.0476927437      -20.6829222846        0.4687518368  MEMB      52              0.0000000000
      4610        52  POPC      C33             3.1953227276      -22.7327465707       13.2335899059  MEMB      52              0.0000000000
      4611        52  POPC      H3X             3.2151806663      -23.7687221384       12.8327389779  MEMB      52              0.0000000000
      4612        52  POPC      H3Y             4.1964634968      -22.7164209545       13.7150162681  MEMB      52              0.0000000000
      4613        52  POPC      C34             3.0741901010      -21.7174354386       12.0705816772  MEMB      52              0.0000000000
      4614        52  POPC      H4X             3.6964959928      -22.0890367019       11.2285787201  MEMB      52              0.0000000000
      4615        52  POPC      H4Y             3.3511992105      -20.7708451413       12.5820049487  MEMB      52              0.0000000000
      4616        52  POPC      C35             1.6938815702      -21.3264366598       11.5444955477  MEMB      52              0.0000000000
      4617        52  POPC      H5X             1.2600810043      -20.4996654302       12.1466475653  MEMB      52              0.0000000000
      4618        52  POPC      H5Y             1.0339441556      -22.1976379015       11.7440238638  MEMB      52              0.0000000000
      4619        52  POPC      C36             1.8135720147      -20.9152841045       10.0712207356  MEMB      52              0.0000000000
      4620        52  POPC      H6X             2.3397265663      -19.9373404538       10.0379226568  MEMB      52              0.0000000000
      4621        52  POPC      H6Y             0.8237566314      -20.6485567379        9.6429183021  MEMB      52              0.0000000000
      4622        52  POPC      C37             2.2957263336      -21.9490672831        9.0828953151  MEMB      52              0.0000000000
      4623        52  POPC      H7X             1.4973410904      -22.7126844918        8.9654609016  MEMB      52              0.0000000000
      4624        52  POPC      H7Y             3.2734556424      -22.4056909073        9.3472078294  MEMB      52              0.0000000000
      4625        52  POPC      C38             2.5184611870      -21.2710782170        7.7343210005  MEMB      52              0.0000000000
      4626        52  POPC      H8X             3.1794318984      -20.4032795836        7.9449496189  MEMB      52              0.0000000000
      4627        52  POPC      H8Y             1.5310389035      -21.0024909207        7.3016796499  MEMB      52              0.0000000000
      4628        52  POPC      C39             3.3653249732      -22.1603225087        6.7759839798  MEMB      52              0.0000000000
      4629        52  POPC      H9X             4.4094853420      -22.1324002442        7.1544949569  MEMB      52              0.0000000000
      4630        52  POPC      H9Y             3.3275806455      -21.6606932222        5.7843854125  MEMB      52              0.0000000000
      4631        52  POPC      C310            2.8113319198      -23.5898603666        6.6046784334  MEMB      52              0.0000000000
      4632        52  POPC      H10X            1.8425309801      -23.6231110581        6.0618705748  MEMB      52              0.0000000000
      4633        52  POPC      H10Y            2.4600522956      -23.9923500273        7.5788060294  MEMB      52              0.0000000000
      4634        52  POPC      C311            3.8342630236      -24.6759921582        5.9857389300  MEMB      52              0.0000000000
      4635        52  POPC      H11X            3.2901846309      -25.6323888002        5.8320995677  MEMB      52              0.0000000000
      4636        52  POPC      H11Y            4.6044553274      -24.8445344526        6.7685017856  MEMB      52              0.0000000000
      4637        52  POPC      C312            4.5353474425      -24.3166989088        4.6097647788  MEMB      52              0.0000000000
      4638        52  POPC      H12X            5.0503666281      -23.3523371411        4.8074576633  MEMB      52              0.0000000000
      4639        52  POPC      H12Y            3.7495091748      -24.1511948371        3.8420488388  MEMB      52              0.0000000000
      4640        52  POPC      C313            5.5027043743      -25.4051201958        4.1779634776  MEMB      52              0.0000000000
      4641        52  POPC      H13X            5.0433596437      -26.4148345889        4.2396081349  MEMB      52              0.0000000000
      4642        52  POPC      H13Y            6.3874955696      -25.2518851962        4.8321687791  MEMB      52              0.0000000000
      4643        52  POPC      C314            6.0049110087      -25.1123592166        2.7716003346  MEMB      52              0.0000000000
      4644        52  POPC      H14X            6.8930817403      -25.7712252626        2.6649729779  MEMB      52              0.0000000000
      4645        52  POPC      H14Y            6.2204130783      -24.0247093345        2.8415829425  MEMB      52              0.0000000000
      4646        52  POPC      C315            5.0496228228      -25.4889695310        1.5932907535  MEMB      52              0.0000000000
      4647        52  POPC      H15X            4.0364270303      -25.6588356519        2.0162567522  MEMB      52              0.0000000000
      4648        52  POPC      H15Y            5.4250784174      -26.4965092268        1.3136154356  MEMB      52              0.0000000000
      4649        52  POPC      C316            5.0313581687      -24.5263350471        0.3565848095  MEMB      52              0.0000000000
      4650        52  POPC      H16X            5.0078321781      -23.4871348880        0.7487973211  MEMB      52              0.0000000000
      4651        52  POPC      H16Y            4.2108074545      -24.8563262875       -0.3158169328  MEMB      52              0.0000000000
      4652        52  POPC      H16Z            6.0277038575      -24.8022949708       -0.0501858728  MEMB      52              0.0000000000
      4653        53  POPC      N             -30.9840886056       26.4520485110       20.3530472968  MEMB      53              0.0000000000
      4654        53  POPC      C12           -30.6410793663       24.9547613772       20.5663034233  MEMB      53              0.0000000000
      4655        53  POPC      H12A          -31.5407335586       24.4908538111       20.9428830575  MEMB      53              0.0000000000
      4656        53  POPC      H12B          -29.9497006171       24.8554169748       21.3900304669  MEMB      53              0.0000000000
      4657        53  POPC      C13           -32.1453991288       26.5851022267       19.4291286154  MEMB      53              0.0000000000
      4658        53  POPC      H13A          -32.5461418878       27.5857212554       19.3615522701  MEMB      53              0.0000000000
      4659        53  POPC      H13B          -31.8994304029       26.3262864895       18.4098573501  MEMB      53              0.0000000000
      4660        53  POPC      H13C          -32.9120206308       25.8951132229       19.7494513431  MEMB      53              0.0000000000
      4661        53  POPC      C14           -31.3756622919       26.9772439836       21.6938396672  MEMB      53              0.0000000000
      4662        53  POPC      H14A          -31.7004071778       28.0015385624       21.5853902581  MEMB      53              0.0000000000
      4663        53  POPC      H14B          -32.2141468987       26.4835805555       22.1624974909  MEMB      53              0.0000000000
      4664        53  POPC      H14C          -30.4722506042       27.0216538190       22.2839882301  MEMB      53              0.0000000000
      4665        53  POPC      C15           -29.7885933587       27.2483451604       19.7949499255  MEMB      53              0.0000000000
      4666        53  POPC      H15A          -29.8995944128       28.2874770061       19.5223993017  MEMB      53              0.0000000000
      4667        53  POPC      H15B          -29.3416705406       26.7634532351       18.9396488295  MEMB      53              0.0000000000
      4668        53  POPC      H15C          -29.0792616832       27.1838905579       20.6067962128  MEMB      53              0.0000000000
      4669        53  POPC      C11           -30.0052657007       24.1378457546       19.3769864291  MEMB      53              0.0000000000
      4670        53  POPC      H11A          -29.5074565527       23.2257466198       19.7701558539  MEMB      53              0.0000000000
      4671        53  POPC      H11B          -29.1930488940       24.7262470885       18.8990651926  MEMB      53              0.0000000000
      4672        53  POPC      P             -30.8709655587       22.5439227968       17.5224011546  MEMB      53              0.0000000000
      4673        53  POPC      O13           -31.4885169721       22.5681229970       16.1099055532  MEMB      53              0.0000000000
      4674        53  POPC      O14           -31.2885937784       21.5476669943       18.5380408122  MEMB      53              0.0000000000
      4675        53  POPC      O12           -30.9873290095       23.9566565955       18.2561856645  MEMB      53              0.0000000000
      4676        53  POPC      O11           -29.2064530684       22.4775087305       17.3592114581  MEMB      53              0.0000000000
      4677        53  POPC      C1            -28.6129717375       21.3366664073       16.7765752681  MEMB      53              0.0000000000
      4678        53  POPC      HA            -29.2968286801       20.6354498117       16.2522126098  MEMB      53              0.0000000000
      4679        53  POPC      HB            -28.1187539039       20.8698103836       17.6552760748  MEMB      53              0.0000000000
      4680        53  POPC      C2            -27.5698409497       21.8210410795       15.7372518183  MEMB      53              0.0000000000
      4681        53  POPC      HS            -26.7611717052       22.3101550130       16.3213259252  MEMB      53              0.0000000000
      4682        53  POPC      O21           -28.2902445017       22.7891042547       14.9086200851  MEMB      53              0.0000000000
      4683        53  POPC      C21           -27.5371965699       23.8025430227       14.4206895351  MEMB      53              0.0000000000
      4684        53  POPC      O22           -26.3397976278       23.8661646382       14.4476626110  MEMB      53              0.0000000000
      4685        53  POPC      C22           -28.3715714740       24.7726658952       13.6542897902  MEMB      53              0.0000000000
      4686        53  POPC      H2R           -27.7255957649       25.6743873894       13.5915619860  MEMB      53              0.0000000000
      4687        53  POPC      H2S           -29.3453863679       25.0580097577       14.1065995049  MEMB      53              0.0000000000
      4688        53  POPC      C3            -27.0405669630       20.7245437176       14.7595395168  MEMB      53              0.0000000000
      4689        53  POPC      HX            -26.3054972397       20.0706467829       15.2756913812  MEMB      53              0.0000000000
      4690        53  POPC      HY            -26.4714036653       21.2045494187       13.9349373394  MEMB      53              0.0000000000
      4691        53  POPC      O31           -28.1494168638       20.0685835474       14.1553472771  MEMB      53              0.0000000000
      4692        53  POPC      C31           -27.8621885085       19.2226383871       13.2301362305  MEMB      53              0.0000000000
      4693        53  POPC      O32           -26.7124025616       18.9176169812       12.8881102137  MEMB      53              0.0000000000
      4694        53  POPC      C32           -29.0358342687       18.6740134825       12.4144581928  MEMB      53              0.0000000000
      4695        53  POPC      H2X           -29.9524325277       18.4543085660       13.0025896484  MEMB      53              0.0000000000
      4696        53  POPC      H2Y           -28.7990271572       17.6388466310       12.0878507381  MEMB      53              0.0000000000
      4697        53  POPC      C23           -28.4645684055       24.1651662175       12.1952183288  MEMB      53              0.0000000000
      4698        53  POPC      H3R           -29.1667098404       23.3157847469       12.3361776706  MEMB      53              0.0000000000
      4699        53  POPC      H3S           -27.4481300011       23.7985287494       11.9368561069  MEMB      53              0.0000000000
      4700        53  POPC      C24           -29.1850167695       25.0567319128       11.0652982545  MEMB      53              0.0000000000
      4701        53  POPC      H4R           -28.5152143178       25.9277619782       10.9010057473  MEMB      53              0.0000000000
      4702        53  POPC      H4S           -30.1661931591       25.4509455448       11.4061935634  MEMB      53              0.0000000000
      4703        53  POPC      C25           -29.3718345716       24.3713755856        9.8063134451  MEMB      53              0.0000000000
      4704        53  POPC      H5R           -30.1068706281       23.5548638164        9.9716967841  MEMB      53              0.0000000000
      4705        53  POPC      H5S           -28.4281129775       24.0063610312        9.3475377889  MEMB      53              0.0000000000
      4706        53  POPC      C26           -29.9348351586       25.1625416911        8.5971660904  MEMB      53              0.0000000000
      4707        53  POPC      H6R           -30.9700143130       25.5463333283        8.7213790202  MEMB      53              0.0000000000
      4708        53  POPC      H6S           -30.0426899972       24.4363857260        7.7632679311  MEMB      53              0.0000000000
      4709        53  POPC      C27           -28.9526866669       26.2142107994        8.0970250596  MEMB      53              0.0000000000
      4710        53  POPC      H7R           -27.9911099387       25.6592169530        8.1379257434  MEMB      53              0.0000000000
      4711        53  POPC      H7S           -28.8958054614       27.1300939812        8.7233192850  MEMB      53              0.0000000000
      4712        53  POPC      C28           -29.2001577374       26.6884308159        6.6474739714  MEMB      53              0.0000000000
      4713        53  POPC      H8R           -29.9700033816       27.4878329387        6.6986060389  MEMB      53              0.0000000000
      4714        53  POPC      H8S           -29.7626558516       25.8378163791        6.2065982879  MEMB      53              0.0000000000
      4715        53  POPC      C29           -28.1092140170       27.1933279326        5.7365087773  MEMB      53              0.0000000000
      4716        53  POPC      H91           -27.9248961591       28.2766374938        5.6868368108  MEMB      53              0.0000000000
      4717        53  POPC      C210          -27.3839508658       26.3705558276        4.9377596773  MEMB      53              0.0000000000
      4718        53  POPC      H101          -26.6340605637       26.8833099593        4.3174801637  MEMB      53              0.0000000000
      4719        53  POPC      C211          -27.4422737364       24.9145543709        4.7042394966  MEMB      53              0.0000000000
      4720        53  POPC      H11R          -26.8525073126       24.6057320556        3.8147869844  MEMB      53              0.0000000000
      4721        53  POPC      H11S          -28.5156705305       24.7715228923        4.4558806208  MEMB      53              0.0000000000
      4722        53  POPC      C212          -26.8943599708       24.0315786957        5.8398220039  MEMB      53              0.0000000000
      4723        53  POPC      H12R          -27.1222708202       24.4442310928        6.8458521124  MEMB      53              0.0000000000
      4724        53  POPC      H12S          -25.8009974400       23.9440124859        5.6631538442  MEMB      53              0.0000000000
      4725        53  POPC      C213          -27.5541420845       22.5999293439        5.9468002902  MEMB      53              0.0000000000
      4726        53  POPC      H13R          -28.6015562579       22.7691581043        6.2763541226  MEMB      53              0.0000000000
      4727        53  POPC      H13S          -26.9787174352       22.0410494075        6.7154747085  MEMB      53              0.0000000000
      4728        53  POPC      C214          -27.5806196173       21.8650927145        4.6430028881  MEMB      53              0.0000000000
      4729        53  POPC      H14R          -26.5537617458       21.8572996476        4.2189466887  MEMB      53              0.0000000000
      4730        53  POPC      H14S          -28.1118483040       22.4765084175        3.8825503540  MEMB      53              0.0000000000
      4731        53  POPC      C215          -28.2434626714       20.4848324503        4.7598785728  MEMB      53              0.0000000000
      4732        53  POPC      H15R          -29.0853403727       20.5698003899        5.4798390086  MEMB      53              0.0000000000
      4733        53  POPC      H15S          -27.5331798858       19.8963034666        5.3791141168  MEMB      53              0.0000000000
      4734        53  POPC      C216          -28.5996646535       19.7554252625        3.4586198046  MEMB      53              0.0000000000
      4735        53  POPC      H16R          -29.4547581700       20.2453760355        2.9457020469  MEMB      53              0.0000000000
      4736        53  POPC      H16S          -29.0635709088       18.7524569137        3.5733665722  MEMB      53              0.0000000000
      4737        53  POPC      C217          -27.4200985950       19.4572828064        2.4431357864  MEMB      53              0.0000000000
      4738        53  POPC      H17R          -26.8440039091       18.6724496318        2.9783675131  MEMB      53              0.0000000000
      4739        53  POPC      H17S          -26.8307045849       20.3858976645        2.2862595449  MEMB      53              0.0000000000
      4740        53  POPC      C218          -27.9585879239       18.8243062274        1.2069850110  MEMB      53              0.0000000000
      4741        53  POPC      H18R          -27.1727829098       18.2731063306        0.6475119752  MEMB      53              0.0000000000
      4742        53  POPC      H18S          -28.4022015414       19.5767821367        0.5204665239  MEMB      53              0.0000000000
      4743        53  POPC      H18T          -28.7574642872       18.1023121922        1.4805587581  MEMB      53              0.0000000000
      4744        53  POPC      C33           -29.3252733881       19.7524920184       11.3475356657  MEMB      53              0.0000000000
      4745        53  POPC      H3X           -28.3382075047       20.1355350281       11.0109347805  MEMB      53              0.0000000000
      4746        53  POPC      H3Y           -29.9175495048       20.5525487634       11.8409315902  MEMB      53              0.0000000000
      4747        53  POPC      C34           -30.0317265663       19.1399529015       10.1898810727  MEMB      53              0.0000000000
      4748        53  POPC      H4X           -30.8183764146       18.4385847055       10.5414282308  MEMB      53              0.0000000000
      4749        53  POPC      H4Y           -29.3692444510       18.5447355199        9.5256854849  MEMB      53              0.0000000000
      4750        53  POPC      C35           -30.6040524015       20.3197387393        9.3254839881  MEMB      53              0.0000000000
      4751        53  POPC      H5X           -29.7731275599       20.9341145186        8.9175288080  MEMB      53              0.0000000000
      4752        53  POPC      H5Y           -31.4034899362       20.9614443841        9.7537762495  MEMB      53              0.0000000000
      4753        53  POPC      C36           -31.4040576331       19.7679939242        8.0647123368  MEMB      53              0.0000000000
      4754        53  POPC      H6X           -32.2951998145       19.2019890782        8.4108701613  MEMB      53              0.0000000000
      4755        53  POPC      H6Y           -30.7762129399       19.1615545642        7.3774254856  MEMB      53              0.0000000000
      4756        53  POPC      C37           -31.9724686919       20.8630502737        7.1508416372  MEMB      53              0.0000000000
      4757        53  POPC      H7X           -32.2544645410       20.2708123527        6.2541511163  MEMB      53              0.0000000000
      4758        53  POPC      H7Y           -31.1825783054       21.5780495584        6.8359290259  MEMB      53              0.0000000000
      4759        53  POPC      C38           -33.2231465955       21.5727067139        7.7387024466  MEMB      53              0.0000000000
      4760        53  POPC      H8X           -32.9303950121       22.3730410447        8.4515015006  MEMB      53              0.0000000000
      4761        53  POPC      H8Y           -33.7398700404       20.8076619119        8.3567838330  MEMB      53              0.0000000000
      4762        53  POPC      C39           -34.2135569101       22.1536705077        6.7301062692  MEMB      53              0.0000000000
      4763        53  POPC      H9X           -34.9776678903       22.8696967250        7.1012698773  MEMB      53              0.0000000000
      4764        53  POPC      H9Y           -34.8600417282       21.5031329709        6.1030666545  MEMB      53              0.0000000000
      4765        53  POPC      C310          -33.5305975133       22.9968248742        5.6305424744  MEMB      53              0.0000000000
      4766        53  POPC      H10X          -34.2526894368       23.2445619984        4.8233678359  MEMB      53              0.0000000000
      4767        53  POPC      H10Y          -32.8281073884       22.3110633782        5.1103879750  MEMB      53              0.0000000000
      4768        53  POPC      C311          -32.8690564068       24.2596042090        6.2356564051  MEMB      53              0.0000000000
      4769        53  POPC      H11X          -31.9835982595       23.8971818291        6.8003996149  MEMB      53              0.0000000000
      4770        53  POPC      H11Y          -33.4820064767       24.6772840366        7.0627935449  MEMB      53              0.0000000000
      4771        53  POPC      C312          -32.4724402375       25.3435896500        5.2791908677  MEMB      53              0.0000000000
      4772        53  POPC      H12X          -31.8844719602       26.1652520096        5.7412355487  MEMB      53              0.0000000000
      4773        53  POPC      H12Y          -33.3778336591       25.7858743235        4.8112503031  MEMB      53              0.0000000000
      4774        53  POPC      C313          -31.6206433373       24.6930360371        4.1336357714  MEMB      53              0.0000000000
      4775        53  POPC      H13X          -32.1757148572       24.0310938459        3.4350308308  MEMB      53              0.0000000000
      4776        53  POPC      H13Y          -30.8028801349       24.2162294171        4.7152195811  MEMB      53              0.0000000000
      4777        53  POPC      C314          -31.1230987495       25.8694237866        3.3045028349  MEMB      53              0.0000000000
      4778        53  POPC      H14X          -30.2486299632       26.3327380535        3.8094436799  MEMB      53              0.0000000000
      4779        53  POPC      H14Y          -31.9452170343       26.5956464191        3.1283136076  MEMB      53              0.0000000000
      4780        53  POPC      C315          -30.6149015454       25.2483394713        2.0529947819  MEMB      53              0.0000000000
      4781        53  POPC      H15X          -31.4556499709       24.7067022694        1.5691637467  MEMB      53              0.0000000000
      4782        53  POPC      H15Y          -29.8834672209       24.4610770892        2.3350279674  MEMB      53              0.0000000000
      4783        53  POPC      C316          -30.0501217568       26.3839636895        1.1107659137  MEMB      53              0.0000000000
      4784        53  POPC      H16X          -29.2437171652       25.9293092839        0.4965018912  MEMB      53              0.0000000000
      4785        53  POPC      H16Y          -29.5627210221       27.2080200281        1.6744088473  MEMB      53              0.0000000000
      4786        53  POPC      H16Z          -30.8231155005       26.8262780493        0.4465668361  MEMB      53              0.0000000000
      4787        54  POPC      N             -32.9537718060       17.7194495908       18.8657959191  MEMB      54              0.0000000000
      4788        54  POPC      C12           -31.4096977918       17.6209495368       18.6150110474  MEMB      54              0.0000000000
      4789        54  POPC      H12A          -31.0496919025       17.6550493097       19.6326716034  MEMB      54              0.0000000000
      4790        54  POPC      H12B          -31.1752110262       18.6054775129       18.2380222806  MEMB      54              0.0000000000
      4791        54  POPC      C13           -33.4135322221       16.4899392437       19.5673974298  MEMB      54              0.0000000000
      4792        54  POPC      H13A          -34.3601826721       16.7360735628       20.0252960102  MEMB      54              0.0000000000
      4793        54  POPC      H13B          -33.4863457392       15.6998436896       18.8346988248  MEMB      54              0.0000000000
      4794        54  POPC      H13C          -32.7446446482       16.2453087664       20.3792750741  MEMB      54              0.0000000000
      4795        54  POPC      C14           -33.4039437376       18.9214121301       19.6470749698  MEMB      54              0.0000000000
      4796        54  POPC      H14A          -34.4681615545       18.9181953204       19.8310053121  MEMB      54              0.0000000000
      4797        54  POPC      H14B          -32.9605718963       18.9480179467       20.6315106736  MEMB      54              0.0000000000
      4798        54  POPC      H14C          -33.1840552911       19.8522567415       19.1454998837  MEMB      54              0.0000000000
      4799        54  POPC      C15           -33.5765143169       17.7944598666       17.4806837441  MEMB      54              0.0000000000
      4800        54  POPC      H15A          -34.5925578265       18.1389530044       17.6046999636  MEMB      54              0.0000000000
      4801        54  POPC      H15B          -33.5431377595       16.8378696072       16.9804626756  MEMB      54              0.0000000000
      4802        54  POPC      H15C          -32.9812496073       18.5421116628       16.9776164778  MEMB      54              0.0000000000
      4803        54  POPC      C11           -30.8289177942       16.5213803956       17.7326103497  MEMB      54              0.0000000000
      4804        54  POPC      H11A          -29.7320725887       16.5776289352       17.5650167962  MEMB      54              0.0000000000
      4805        54  POPC      H11B          -31.2980854392       16.6232885891       16.7307035330  MEMB      54              0.0000000000
      4806        54  POPC      P             -30.3299783694       14.6546638456       19.5358664215  MEMB      54              0.0000000000
      4807        54  POPC      O13           -31.1702348388       13.7709533256       20.3517716961  MEMB      54              0.0000000000
      4808        54  POPC      O14           -29.4537843236       15.6459576401       20.2252809342  MEMB      54              0.0000000000
      4809        54  POPC      O12           -31.2425754461       15.2803527366       18.3824716896  MEMB      54              0.0000000000
      4810        54  POPC      O11           -29.4903482512       13.6936575325       18.5960357947  MEMB      54              0.0000000000
      4811        54  POPC      C1            -30.1988953070       12.7926547668       17.6958790603  MEMB      54              0.0000000000
      4812        54  POPC      HA            -31.1031229758       13.2397419534       17.2302545641  MEMB      54              0.0000000000
      4813        54  POPC      HB            -30.6468077962       11.9513787536       18.2667994829  MEMB      54              0.0000000000
      4814        54  POPC      C2            -29.2464377482       12.2495891692       16.5439944752  MEMB      54              0.0000000000
      4815        54  POPC      HS            -28.4535512009       11.7660794622       17.1538061698  MEMB      54              0.0000000000
      4816        54  POPC      O21           -28.8388562495       13.5459139518       15.8666030792  MEMB      54              0.0000000000
      4817        54  POPC      C21           -27.5483777089       13.4617318082       15.5170829968  MEMB      54              0.0000000000
      4818        54  POPC      O22           -26.8194664125       12.5181964323       15.6154818919  MEMB      54              0.0000000000
      4819        54  POPC      C22           -27.1701354556       14.8264264306       14.9389172481  MEMB      54              0.0000000000
      4820        54  POPC      H2R           -26.0890121299       14.8774161869       14.6881312793  MEMB      54              0.0000000000
      4821        54  POPC      H2S           -27.4897690951       15.6225268267       15.6448774511  MEMB      54              0.0000000000
      4822        54  POPC      C3            -29.9472543293       11.1932851187       15.6344400647  MEMB      54              0.0000000000
      4823        54  POPC      HX            -30.2098520545       10.3364862377       16.2911435542  MEMB      54              0.0000000000
      4824        54  POPC      HY            -29.2210331077       10.7812694773       14.9015230624  MEMB      54              0.0000000000
      4825        54  POPC      O31           -31.1597859086       11.7702922483       15.0313612075  MEMB      54              0.0000000000
      4826        54  POPC      C31           -31.1066220481       12.2314656196       13.7749681216  MEMB      54              0.0000000000
      4827        54  POPC      O32           -30.1744027298       12.1775616245       13.0070290010  MEMB      54              0.0000000000
      4828        54  POPC      C32           -32.4599048533       12.8897205348       13.4690480317  MEMB      54              0.0000000000
      4829        54  POPC      H2X           -32.3649306395       13.9843716326       13.6334860180  MEMB      54              0.0000000000
      4830        54  POPC      H2Y           -33.1930820716       12.4322494468       14.1672547308  MEMB      54              0.0000000000
      4831        54  POPC      C23           -27.9963887203       15.0543034277       13.6207847710  MEMB      54              0.0000000000
      4832        54  POPC      H3R           -28.0055045704       16.0856376161       13.2077621296  MEMB      54              0.0000000000
      4833        54  POPC      H3S           -29.0427535036       14.6949743886       13.7223954817  MEMB      54              0.0000000000
      4834        54  POPC      C24           -27.3457564394       14.3464181136       12.4640079287  MEMB      54              0.0000000000
      4835        54  POPC      H4R           -27.1432836591       13.2741597152       12.6727842562  MEMB      54              0.0000000000
      4836        54  POPC      H4S           -26.4024588863       14.8800917212       12.2196648986  MEMB      54              0.0000000000
      4837        54  POPC      C25           -28.1268207777       14.4844725898       11.1081363434  MEMB      54              0.0000000000
      4838        54  POPC      H5R           -28.0516112276       15.5377577970       10.7628036054  MEMB      54              0.0000000000
      4839        54  POPC      H5S           -29.2100973907       14.2791212035       11.2447523325  MEMB      54              0.0000000000
      4840        54  POPC      C26           -27.6515405193       13.4727497334       10.0472199310  MEMB      54              0.0000000000
      4841        54  POPC      H6R           -27.6625413719       12.4535727670       10.4893492904  MEMB      54              0.0000000000
      4842        54  POPC      H6S           -26.5870594955       13.6296936562        9.7705077550  MEMB      54              0.0000000000
      4843        54  POPC      C27           -28.5719362979       13.4082126089        8.8360384290  MEMB      54              0.0000000000
      4844        54  POPC      H7R           -28.5118839061       14.3580633376        8.2628902195  MEMB      54              0.0000000000
      4845        54  POPC      H7S           -29.6399522502       13.2021704596        9.0623329876  MEMB      54              0.0000000000
      4846        54  POPC      C28           -28.1583014452       12.3070197720        7.8523578851  MEMB      54              0.0000000000
      4847        54  POPC      H8R           -28.9650612860       11.9005928838        7.2056146996  MEMB      54              0.0000000000
      4848        54  POPC      H8S           -27.7729978969       11.5021860939        8.5142523908  MEMB      54              0.0000000000
      4849        54  POPC      C29           -26.9345554419       12.6344285630        7.0600704679  MEMB      54              0.0000000000
      4850        54  POPC      H91           -25.9941438436       12.1767137007        7.4008383359  MEMB      54              0.0000000000
      4851        54  POPC      C210          -26.8955848263       13.1185687046        5.8290414184  MEMB      54              0.0000000000
      4852        54  POPC      H101          -25.8857694546       13.3470886956        5.4574886938  MEMB      54              0.0000000000
      4853        54  POPC      C211          -28.1308604136       13.4063095368        5.0050887393  MEMB      54              0.0000000000
      4854        54  POPC      H11R          -28.3461935700       14.4959547436        5.0301069238  MEMB      54              0.0000000000
      4855        54  POPC      H11S          -29.0892145654       13.0029339855        5.3964542257  MEMB      54              0.0000000000
      4856        54  POPC      C212          -28.0127889486       12.9171347738        3.4908465965  MEMB      54              0.0000000000
      4857        54  POPC      H12R          -27.7173418639       11.8495278624        3.4057132626  MEMB      54              0.0000000000
      4858        54  POPC      H12S          -27.2822615192       13.5583264142        2.9527721393  MEMB      54              0.0000000000
      4859        54  POPC      C213          -29.2805487156       13.1801163239        2.6525557667  MEMB      54              0.0000000000
      4860        54  POPC      H13R          -29.5873804905       14.1996200166        2.9700264221  MEMB      54              0.0000000000
      4861        54  POPC      H13S          -30.0714553992       12.4326388911        2.8763087642  MEMB      54              0.0000000000
      4862        54  POPC      C214          -28.9693590486       13.1526332624        1.1740273381  MEMB      54              0.0000000000
      4863        54  POPC      H14R          -28.6879631515       12.0944439337        0.9859505466  MEMB      54              0.0000000000
      4864        54  POPC      H14S          -28.1828240533       13.8767481832        0.8717999665  MEMB      54              0.0000000000
      4865        54  POPC      C215          -30.1914226225       13.5388061266        0.2647093131  MEMB      54              0.0000000000
      4866        54  POPC      H15R          -29.8962769003       13.8816972541       -0.7500009351  MEMB      54              0.0000000000
      4867        54  POPC      H15S          -30.6565275581       14.4237012947        0.7494346432  MEMB      54              0.0000000000
      4868        54  POPC      C216          -31.1316899877       12.3439792975        0.0529141956  MEMB      54              0.0000000000
      4869        54  POPC      H16R          -31.5637382927       12.1114881500        1.0497104279  MEMB      54              0.0000000000
      4870        54  POPC      H16S          -30.6899142139       11.4573009588       -0.4500336095  MEMB      54              0.0000000000
      4871        54  POPC      C217          -32.3972602265       12.6454676450       -0.7895607527  MEMB      54              0.0000000000
      4872        54  POPC      H17R          -32.7486964838       11.6130547817       -1.0015461787  MEMB      54              0.0000000000
      4873        54  POPC      H17S          -32.2245991670       13.1558520004       -1.7611674556  MEMB      54              0.0000000000
      4874        54  POPC      C218          -33.4435542429       13.5332960242       -0.0565457539  MEMB      54              0.0000000000
      4875        54  POPC      H18R          -33.1792361300       14.6084835562       -0.1483552010  MEMB      54              0.0000000000
      4876        54  POPC      H18S          -33.4460544058       13.2712922800        1.0231162426  MEMB      54              0.0000000000
      4877        54  POPC      H18T          -34.4872008415       13.4317475135       -0.4237107650  MEMB      54              0.0000000000
      4878        54  POPC      C33           -33.1107312189       12.4174560637       12.0762050535  MEMB      54              0.0000000000
      4879        54  POPC      H3X           -34.1459515378       12.8185942941       12.0346400946  MEMB      54              0.0000000000
      4880        54  POPC      H3Y           -33.1615992680       11.3079890106       12.1047711051  MEMB      54              0.0000000000
      4881        54  POPC      C34           -32.3799387424       12.8217584952       10.7950143424  MEMB      54              0.0000000000
      4882        54  POPC      H4X           -31.3154111820       12.5040970012       10.7811105652  MEMB      54              0.0000000000
      4883        54  POPC      H4Y           -32.3211777319       13.9202638552       10.6395984263  MEMB      54              0.0000000000
      4884        54  POPC      C35           -33.1317670979       12.3676827190        9.5636122414  MEMB      54              0.0000000000
      4885        54  POPC      H5X           -34.2037148076       12.6551734866        9.6145873690  MEMB      54              0.0000000000
      4886        54  POPC      H5Y           -33.1526659393       11.2593174585        9.6371736706  MEMB      54              0.0000000000
      4887        54  POPC      C36           -32.5763849273       12.8637877388        8.2289440277  MEMB      54              0.0000000000
      4888        54  POPC      H6X           -31.5417837772       12.4975001723        8.0564477430  MEMB      54              0.0000000000
      4889        54  POPC      H6Y           -32.5284062473       13.9727764190        8.2754573032  MEMB      54              0.0000000000
      4890        54  POPC      C37           -33.2839294460       12.3809518262        6.9690887228  MEMB      54              0.0000000000
      4891        54  POPC      H7X           -34.0441899588       13.0961349839        6.5885129998  MEMB      54              0.0000000000
      4892        54  POPC      H7Y           -33.8397645327       11.4309552979        7.1203334555  MEMB      54              0.0000000000
      4893        54  POPC      C38           -32.2235261564       12.1622440116        5.8337164184  MEMB      54              0.0000000000
      4894        54  POPC      H8X           -31.6304118438       11.2346605185        5.9824625474  MEMB      54              0.0000000000
      4895        54  POPC      H8Y           -31.4341370061       12.9213816048        6.0205225067  MEMB      54              0.0000000000
      4896        54  POPC      C39           -32.8448933225       12.4170441879        4.3971190627  MEMB      54              0.0000000000
      4897        54  POPC      H9X           -33.6753293148       11.6843681563        4.3083352286  MEMB      54              0.0000000000
      4898        54  POPC      H9Y           -32.0154568062       12.1140779314        3.7229029320  MEMB      54              0.0000000000
      4899        54  POPC      C310          -33.3778380238       13.8600636180        4.0557401540  MEMB      54              0.0000000000
      4900        54  POPC      H10X          -34.4112024147       13.9392411757        4.4560015415  MEMB      54              0.0000000000
      4901        54  POPC      H10Y          -33.4018843247       13.9634333193        2.9498201858  MEMB      54              0.0000000000
      4902        54  POPC      C311          -32.5456400213       14.9754816833        4.6573678182  MEMB      54              0.0000000000
      4903        54  POPC      H11X          -31.5286225456       14.9216497303        4.2134094431  MEMB      54              0.0000000000
      4904        54  POPC      H11Y          -32.5108044486       15.0237399654        5.7667719677  MEMB      54              0.0000000000
      4905        54  POPC      C312          -33.1553725696       16.3893124296        4.3633169442  MEMB      54              0.0000000000
      4906        54  POPC      H12X          -32.6059230743       17.0648086352        5.0533388142  MEMB      54              0.0000000000
      4907        54  POPC      H12Y          -34.2036368444       16.4251557654        4.7296192990  MEMB      54              0.0000000000
      4908        54  POPC      C313          -33.0614921527       16.8132081546        2.8396518235  MEMB      54              0.0000000000
      4909        54  POPC      H13X          -33.5868629867       17.7730825458        2.6474336188  MEMB      54              0.0000000000
      4910        54  POPC      H13Y          -33.6471746895       16.0714798832        2.2555831118  MEMB      54              0.0000000000
      4911        54  POPC      C314          -31.6239293349       17.0407770743        2.3056230779  MEMB      54              0.0000000000
      4912        54  POPC      H14X          -31.2254337637       16.0822197228        1.9097825731  MEMB      54              0.0000000000
      4913        54  POPC      H14Y          -30.9389380379       17.3899264593        3.1076232183  MEMB      54              0.0000000000
      4914        54  POPC      C315          -31.4748805629       18.1517656487        1.2534728701  MEMB      54              0.0000000000
      4915        54  POPC      H15X          -31.4675078025       19.1277022842        1.7843355831  MEMB      54              0.0000000000
      4916        54  POPC      H15Y          -32.1884974696       18.0677088551        0.4061196546  MEMB      54              0.0000000000
      4917        54  POPC      C316          -30.2087056238       18.1476548427        0.4804010417  MEMB      54              0.0000000000
      4918        54  POPC      H16X          -30.1064267048       19.0109020189       -0.2114566725  MEMB      54              0.0000000000
      4919        54  POPC      H16Y          -30.1391518653       17.3644987759       -0.3045515539  MEMB      54              0.0000000000
      4920        54  POPC      H16Z          -29.4641069569       18.1299635687        1.3047667134  MEMB      54              0.0000000000
      4921        55  POPE      N             -29.1864039430        7.0221677245       21.4179302076  MEMB      55              0.0000000000
      4922        55  POPE      HN1           -29.5819723907        6.9558993553       22.3774791584  MEMB      55              0.0000000000
      4923        55  POPE      HN2           -29.9729545744        7.2177850732       20.7662614417  MEMB      55              0.0000000000
      4924        55  POPE      HN3           -28.7527627598        6.1163631065       21.1476092851  MEMB      55              0.0000000000
      4925        55  POPE      C12           -28.0626476417        7.9633871984       21.2600673673  MEMB      55              0.0000000000
      4926        55  POPE      H12A          -27.3493198797        8.0089022056       22.1106042379  MEMB      55              0.0000000000
      4927        55  POPE      H12B          -28.6317277185        8.9158124406       21.3179894917  MEMB      55              0.0000000000
      4928        55  POPE      C11           -27.3639058226        7.7677287125       19.9055408128  MEMB      55              0.0000000000
      4929        55  POPE      H11A          -27.0906633785        6.6987227298       19.7755952087  MEMB      55              0.0000000000
      4930        55  POPE      H11B          -26.3900201115        8.2974790632       19.9778749781  MEMB      55              0.0000000000
      4931        55  POPE      P             -27.7016252342        9.5897937278       17.8937296185  MEMB      55              0.0000000000
      4932        55  POPE      O13           -27.3507235518       10.7300121402       18.7702745227  MEMB      55              0.0000000000
      4933        55  POPE      O14           -28.8277994325        9.7445998143       16.9737788012  MEMB      55              0.0000000000
      4934        55  POPE      O11           -26.5541799597        9.0829016385       16.9827854549  MEMB      55              0.0000000000
      4935        55  POPE      O12           -28.1755719895        8.3245184286       18.7958932540  MEMB      55              0.0000000000
      4936        55  POPE      C1            -26.5441663763        7.7898039427       16.3961042853  MEMB      55              0.0000000000
      4937        55  POPE      HA            -27.4942730664        7.2212257807       16.3047958518  MEMB      55              0.0000000000
      4938        55  POPE      HB            -25.9606617586        7.1201250630       17.0634675515  MEMB      55              0.0000000000
      4939        55  POPE      C2            -25.8593047447        7.8166423044       14.9609477016  MEMB      55              0.0000000000
      4940        55  POPE      HS            -25.0584781887        7.0676803018       14.7819111662  MEMB      55              0.0000000000
      4941        55  POPE      O21           -25.2111325734        9.0925538816       14.8554918081  MEMB      55              0.0000000000
      4942        55  POPE      C21           -24.3619687124        9.1697922381       13.8779537031  MEMB      55              0.0000000000
      4943        55  POPE      O22           -24.0540609351        8.3254880339       13.0849471005  MEMB      55              0.0000000000
      4944        55  POPE      C22           -23.7700932581       10.6221283302       13.7386668991  MEMB      55              0.0000000000
      4945        55  POPE      H2R           -22.6930131188       10.5989646478       13.4672198549  MEMB      55              0.0000000000
      4946        55  POPE      H2S           -23.7414824170       11.0001761208       14.7829762273  MEMB      55              0.0000000000
      4947        55  POPE      C3            -26.9159464171        7.7311990799       13.8535897862  MEMB      55              0.0000000000
      4948        55  POPE      HX            -27.6251638379        6.9126787082       14.1012915931  MEMB      55              0.0000000000
      4949        55  POPE      HY            -26.5386880763        7.6533108880       12.8115097440  MEMB      55              0.0000000000
      4950        55  POPE      O31           -27.7365732686        8.9502673856       13.8759353756  MEMB      55              0.0000000000
      4951        55  POPE      C31           -28.9105400273        8.8505415801       13.2338237492  MEMB      55              0.0000000000
      4952        55  POPE      O32           -29.2337279442        7.8681211474       12.6145418779  MEMB      55              0.0000000000
      4953        55  POPE      C32           -29.8058593140       10.1023895560       13.4018221657  MEMB      55              0.0000000000
      4954        55  POPE      H2X           -30.0670731121       10.2026229765       14.4770160808  MEMB      55              0.0000000000
      4955        55  POPE      H2Y           -30.8496727318       10.0467984497       13.0254128461  MEMB      55              0.0000000000
      4956        55  POPE      C23           -24.5367746356       11.5992215678       12.9908395334  MEMB      55              0.0000000000
      4957        55  POPE      H3R           -24.0201165116       12.5817620818       13.0355556779  MEMB      55              0.0000000000
      4958        55  POPE      H3S           -25.5660637836       11.6045104229       13.4089983531  MEMB      55              0.0000000000
      4959        55  POPE      C24           -24.8267587908       11.0592530125       11.5429002235  MEMB      55              0.0000000000
      4960        55  POPE      H4R           -25.6640500571       10.3298156459       11.5084697403  MEMB      55              0.0000000000
      4961        55  POPE      H4S           -23.9702949325       10.4351824286       11.2092439249  MEMB      55              0.0000000000
      4962        55  POPE      C25           -25.0544400854       12.2780077541       10.5931884858  MEMB      55              0.0000000000
      4963        55  POPE      H5R           -24.1640800356       12.9291559138       10.7258016284  MEMB      55              0.0000000000
      4964        55  POPE      H5S           -25.8374449831       12.8593554427       11.1254094540  MEMB      55              0.0000000000
      4965        55  POPE      C26           -25.3624349733       11.7508356738        9.1650607056  MEMB      55              0.0000000000
      4966        55  POPE      H6R           -26.2861425444       11.1559348246        9.3299197169  MEMB      55              0.0000000000
      4967        55  POPE      H6S           -24.6059026264       10.9967821821        8.8594744062  MEMB      55              0.0000000000
      4968        55  POPE      C27           -25.5110912012       12.7285460693        8.0944678290  MEMB      55              0.0000000000
      4969        55  POPE      H7R           -24.5118082717       13.1847160763        7.9281446893  MEMB      55              0.0000000000
      4970        55  POPE      H7S           -26.1680161982       13.5772668042        8.3815979283  MEMB      55              0.0000000000
      4971        55  POPE      C28           -26.0893130323       12.2140380516        6.7352799351  MEMB      55              0.0000000000
      4972        55  POPE      H8R           -26.2307811099       13.1455036098        6.1464849468  MEMB      55              0.0000000000
      4973        55  POPE      H8S           -27.0325746117       11.6562940448        6.9183101315  MEMB      55              0.0000000000
      4974        55  POPE      C29           -25.1189588951       11.2059491445        6.1504309692  MEMB      55              0.0000000000
      4975        55  POPE      H91           -24.3211151489       11.6625427277        5.5463056430  MEMB      55              0.0000000000
      4976        55  POPE      C210          -25.1213178913        9.8583228597        6.3529157870  MEMB      55              0.0000000000
      4977        55  POPE      H101          -24.4060958302        9.3068697420        5.7249379183  MEMB      55              0.0000000000
      4978        55  POPE      C211          -26.0305853912        8.9690647896        7.1827937495  MEMB      55              0.0000000000
      4979        55  POPE      H11R          -26.4908001172        9.6089247651        7.9658025853  MEMB      55              0.0000000000
      4980        55  POPE      H11S          -25.3821605052        8.2246370302        7.6923953414  MEMB      55              0.0000000000
      4981        55  POPE      C212          -27.2265744562        8.3384876926        6.3957231049  MEMB      55              0.0000000000
      4982        55  POPE      H12R          -27.9285044654        9.1356877247        6.0700130024  MEMB      55              0.0000000000
      4983        55  POPE      H12S          -27.6878065772        7.7498525397        7.2173640065  MEMB      55              0.0000000000
      4984        55  POPE      C213          -26.7747062560        7.5519393225        5.1470173326  MEMB      55              0.0000000000
      4985        55  POPE      H13R          -26.2402971469        6.6580391526        5.5338908427  MEMB      55              0.0000000000
      4986        55  POPE      H13S          -26.2167161339        8.1541200323        4.3984544746  MEMB      55              0.0000000000
      4987        55  POPE      C214          -28.0067554195        6.9390999891        4.3485252150  MEMB      55              0.0000000000
      4988        55  POPE      H14R          -28.5872245991        6.4360613490        5.1512263457  MEMB      55              0.0000000000
      4989        55  POPE      H14S          -27.6252814531        6.1116305750        3.7128421021  MEMB      55              0.0000000000
      4990        55  POPE      C215          -28.8010353051        7.9458964243        3.5334494835  MEMB      55              0.0000000000
      4991        55  POPE      H15R          -29.0952273494        8.7971303187        4.1839668019  MEMB      55              0.0000000000
      4992        55  POPE      H15S          -29.7180156468        7.4708557586        3.1238102712  MEMB      55              0.0000000000
      4993        55  POPE      C216          -28.0375593853        8.4562495638        2.2471907554  MEMB      55              0.0000000000
      4994        55  POPE      H16R          -27.7417611448        7.4852894499        1.7954600227  MEMB      55              0.0000000000
      4995        55  POPE      H16S          -27.1273915152        9.0822939229        2.3654441532  MEMB      55              0.0000000000
      4996        55  POPE      C217          -28.9789008617        9.2853524536        1.2606078741  MEMB      55              0.0000000000
      4997        55  POPE      H17R          -29.3490934516       10.2191982946        1.7351714736  MEMB      55              0.0000000000
      4998        55  POPE      H17S          -29.8223276236        8.6019518827        1.0241430722  MEMB      55              0.0000000000
      4999        55  POPE      C218          -28.3486394910        9.6525995530       -0.0919501215  MEMB      55              0.0000000000
      5000        55  POPE      H18R          -27.5387852526       10.3687612302        0.1641152415  MEMB      55              0.0000000000
      5001        55  POPE      H18S          -28.9797121269        9.9722406837       -0.9486295023  MEMB      55              0.0000000000
      5002        55  POPE      H18T          -27.7374726985        8.7840781314       -0.4182426282  MEMB      55              0.0000000000
      5003        55  POPE      C33           -29.0934870493       11.3688561529       12.7972411058  MEMB      55              0.0000000000
      5004        55  POPE      H3X           -28.0667937106       11.3925412886       13.2211051499  MEMB      55              0.0000000000
      5005        55  POPE      H3Y           -29.7130536663       12.2447643904       13.0857591351  MEMB      55              0.0000000000
      5006        55  POPE      C34           -28.9493266066       11.5133419216       11.2678446638  MEMB      55              0.0000000000
      5007        55  POPE      H4X           -28.4310032115       10.6565820098       10.7865711273  MEMB      55              0.0000000000
      5008        55  POPE      H4Y           -28.1436322617       12.2777057395       11.2982714097  MEMB      55              0.0000000000
      5009        55  POPE      C35           -30.1521813638       12.0832666246       10.5475932066  MEMB      55              0.0000000000
      5010        55  POPE      H5X           -30.3935991642       13.0964625116       10.9342103332  MEMB      55              0.0000000000
      5011        55  POPE      H5Y           -31.0458814142       11.4307294485       10.6466732150  MEMB      55              0.0000000000
      5012        55  POPE      C36           -29.9029535034       12.4076781309        9.0318331077  MEMB      55              0.0000000000
      5013        55  POPE      H6X           -29.0163682124       13.0608148909        8.8845239974  MEMB      55              0.0000000000
      5014        55  POPE      H6Y           -30.7915078619       12.9209725026        8.6060155244  MEMB      55              0.0000000000
      5015        55  POPE      C37           -29.8688281158       11.2134239805        8.1446549153  MEMB      55              0.0000000000
      5016        55  POPE      H7X           -30.6665381393       10.4778339342        8.3831650229  MEMB      55              0.0000000000
      5017        55  POPE      H7Y           -28.8955946468       10.6804526781        8.0891647182  MEMB      55              0.0000000000
      5018        55  POPE      C38           -30.4376121562       11.4715561286        6.6749470286  MEMB      55              0.0000000000
      5019        55  POPE      H8X           -31.5102819408       11.7141271876        6.8326173384  MEMB      55              0.0000000000
      5020        55  POPE      H8Y           -30.4290820913       10.5683513488        6.0280552412  MEMB      55              0.0000000000
      5021        55  POPE      C39           -29.7357490946       12.6088443964        5.8254308877  MEMB      55              0.0000000000
      5022        55  POPE      H9X           -28.6549347393       12.3618640819        5.7535834746  MEMB      55              0.0000000000
      5023        55  POPE      H9Y           -29.8305215828       13.5781865524        6.3599544748  MEMB      55              0.0000000000
      5024        55  POPE      C310          -30.2228767262       12.7988232533        4.3615105283  MEMB      55              0.0000000000
      5025        55  POPE      H10X          -31.3175014882       12.9817169346        4.3098642656  MEMB      55              0.0000000000
      5026        55  POPE      H10Y          -30.0087366468       11.9405338299        3.6893469291  MEMB      55              0.0000000000
      5027        55  POPE      C311          -29.5549537191       13.9501634128        3.6148694183  MEMB      55              0.0000000000
      5028        55  POPE      H11X          -28.4804031665       13.9451475614        3.8970704393  MEMB      55              0.0000000000
      5029        55  POPE      H11Y          -30.1282735313       14.8426297373        3.9452165650  MEMB      55              0.0000000000
      5030        55  POPE      C312          -29.6421650436       13.7758563279        2.0060588752  MEMB      55              0.0000000000
      5031        55  POPE      H12X          -30.7130085805       13.7442705797        1.7117491142  MEMB      55              0.0000000000
      5032        55  POPE      H12Y          -29.1916457599       12.8457465513        1.5983219302  MEMB      55              0.0000000000
      5033        55  POPE      C313          -28.9622056813       14.8971186408        1.2554111696  MEMB      55              0.0000000000
      5034        55  POPE      H13X          -29.3010083524       15.8014922086        1.8046306689  MEMB      55              0.0000000000
      5035        55  POPE      H13Y          -29.2154021120       15.0009428288        0.1786418108  MEMB      55              0.0000000000
      5036        55  POPE      C314          -27.4413810924       14.8209498476        1.4489901842  MEMB      55              0.0000000000
      5037        55  POPE      H14X          -27.0908967637       13.7920671800        1.2190286606  MEMB      55              0.0000000000
      5038        55  POPE      H14Y          -27.1793769957       15.0165607865        2.5107868327  MEMB      55              0.0000000000
      5039        55  POPE      C315          -26.7056697108       15.7771744021        0.5027796425  MEMB      55              0.0000000000
      5040        55  POPE      H15X          -27.0838834439       16.8080530921        0.6717902215  MEMB      55              0.0000000000
      5041        55  POPE      H15Y          -26.9940029384       15.5587796019       -0.5476915225  MEMB      55              0.0000000000
      5042        55  POPE      C316          -25.1633732365       15.8209690337        0.6831828480  MEMB      55              0.0000000000
      5043        55  POPE      H16X          -24.8939946769       16.2776352581        1.6595089020  MEMB      55              0.0000000000
      5044        55  POPE      H16Y          -24.7424522186       16.4947512622       -0.0934551460  MEMB      55              0.0000000000
      5045        55  POPE      H16Z          -24.6371036674       14.8441818610        0.6261942813  MEMB      55              0.0000000000
      5046        56  POPE      N             -31.2533482094       34.2243180950       21.5786949743  MEMB      56              0.0000000000
      5047        56  POPE      HN1           -32.0256647265       34.8089465022       21.9572935444  MEMB      56              0.0000000000
      5048        56  POPE      HN2           -30.6582548303       34.3097017342       22.4273253608  MEMB      56              0.0000000000
      5049        56  POPE      HN3           -30.8893302316       34.7254542038       20.7432588535  MEMB      56              0.0000000000
      5050        56  POPE      C12           -31.8640972139       32.9006183328       21.2709447108  MEMB      56              0.0000000000
      5051        56  POPE      H12A          -32.6331915877       32.7704419869       22.0620635744  MEMB      56              0.0000000000
      5052        56  POPE      H12B          -31.1312103193       32.0658090079       21.2880097141  MEMB      56              0.0000000000
      5053        56  POPE      C11           -32.6284199231       32.8914147974       19.9239758524  MEMB      56              0.0000000000
      5054        56  POPE      H11A          -32.5119968882       33.9150247445       19.5080560463  MEMB      56              0.0000000000
      5055        56  POPE      H11B          -33.6880622733       32.6050757163       20.0956993633  MEMB      56              0.0000000000
      5056        56  POPE      P             -31.1376911765       32.2218974458       17.8075203393  MEMB      56              0.0000000000
      5057        56  POPE      O13           -31.0541102341       30.9785446320       16.9942082122  MEMB      56              0.0000000000
      5058        56  POPE      O14           -29.8276381177       32.7515420006       18.3425106496  MEMB      56              0.0000000000
      5059        56  POPE      O11           -31.9566474138       33.2685915454       17.0006331576  MEMB      56              0.0000000000
      5060        56  POPE      O12           -32.0684101144       31.8784763513       19.0815121072  MEMB      56              0.0000000000
      5061        56  POPE      C1            -33.3295543088       33.3842878705       16.7457743037  MEMB      56              0.0000000000
      5062        56  POPE      HA            -33.7352660390       34.1924777211       17.3911796888  MEMB      56              0.0000000000
      5063        56  POPE      HB            -33.9615528719       32.4921189818       16.9430897524  MEMB      56              0.0000000000
      5064        56  POPE      C2            -33.6394083658       33.5777413077       15.2803208237  MEMB      56              0.0000000000
      5065        56  POPE      HS            -34.7111867379       33.3370887612       15.1138914723  MEMB      56              0.0000000000
      5066        56  POPE      O21           -32.9174102131       32.5794253323       14.5798394670  MEMB      56              0.0000000000
      5067        56  POPE      C21           -33.2494572285       31.3141532784       14.4476749511  MEMB      56              0.0000000000
      5068        56  POPE      O22           -34.2344100657       30.7830423384       14.9047110396  MEMB      56              0.0000000000
      5069        56  POPE      C22           -32.4137295836       30.5879657212       13.4147682280  MEMB      56              0.0000000000
      5070        56  POPE      H2R           -32.8902230376       29.6098597942       13.1898600225  MEMB      56              0.0000000000
      5071        56  POPE      H2S           -31.4415804883       30.3593726260       13.9015866081  MEMB      56              0.0000000000
      5072        56  POPE      C3            -33.2317585412       34.9030419162       14.6773182598  MEMB      56              0.0000000000
      5073        56  POPE      HX            -33.7835980805       35.6893042757       15.2355165644  MEMB      56              0.0000000000
      5074        56  POPE      HY            -33.6489677351       34.9053511303       13.6476326245  MEMB      56              0.0000000000
      5075        56  POPE      O31           -31.7554173496       35.0380315603       14.7594318280  MEMB      56              0.0000000000
      5076        56  POPE      C31           -31.3569600117       36.0459445911       13.8813095642  MEMB      56              0.0000000000
      5077        56  POPE      O32           -32.1007082583       36.8517255799       13.3959689806  MEMB      56              0.0000000000
      5078        56  POPE      C32           -29.8715631422       35.9154329283       13.6345671373  MEMB      56              0.0000000000
      5079        56  POPE      H2X           -29.3470815794       35.4629518940       14.5031874133  MEMB      56              0.0000000000
      5080        56  POPE      H2Y           -29.3812718611       36.8769207118       13.3709825148  MEMB      56              0.0000000000
      5081        56  POPE      C23           -31.9779292689       31.4190450602       12.1914018785  MEMB      56              0.0000000000
      5082        56  POPE      H3R           -31.2548484095       30.8630966646       11.5570541483  MEMB      56              0.0000000000
      5083        56  POPE      H3S           -31.5133904933       32.3740151035       12.5178319578  MEMB      56              0.0000000000
      5084        56  POPE      C24           -33.1442252608       31.6955403468       11.2683908752  MEMB      56              0.0000000000
      5085        56  POPE      H4R           -33.8701800166       32.2735004291       11.8793512379  MEMB      56              0.0000000000
      5086        56  POPE      H4S           -33.5651329312       30.7309347317       10.9124501114  MEMB      56              0.0000000000
      5087        56  POPE      C25           -32.8101493264       32.4666428939        9.9378866538  MEMB      56              0.0000000000
      5088        56  POPE      H5R           -32.0121521551       31.9951403751        9.3253453612  MEMB      56              0.0000000000
      5089        56  POPE      H5S           -32.5488143185       33.5100456407       10.2159797744  MEMB      56              0.0000000000
      5090        56  POPE      C26           -33.9819313187       32.5101197289        8.9222147283  MEMB      56              0.0000000000
      5091        56  POPE      H6R           -34.2121123094       31.4740311784        8.5937961158  MEMB      56              0.0000000000
      5092        56  POPE      H6S           -33.5320510983       33.0390286987        8.0549284507  MEMB      56              0.0000000000
      5093        56  POPE      C27           -35.2451849667       33.2062610662        9.4146228655  MEMB      56              0.0000000000
      5094        56  POPE      H7R           -34.7178758368       34.1625446741        9.6190430023  MEMB      56              0.0000000000
      5095        56  POPE      H7S           -35.7704813492       32.9026666836       10.3453295223  MEMB      56              0.0000000000
      5096        56  POPE      C28           -36.3217425943       33.3952070602        8.2725758481  MEMB      56              0.0000000000
      5097        56  POPE      H8R           -37.1480870569       33.9340879356        8.7835396186  MEMB      56              0.0000000000
      5098        56  POPE      H8S           -36.7390114468       32.4816480472        7.7975838110  MEMB      56              0.0000000000
      5099        56  POPE      C29           -35.8474344726       34.2476998327        7.1493168747  MEMB      56              0.0000000000
      5100        56  POPE      H91           -35.9823962637       35.3320236185        7.2759181324  MEMB      56              0.0000000000
      5101        56  POPE      C210          -35.2207149246       33.8891593897        6.0635791547  MEMB      56              0.0000000000
      5102        56  POPE      H101          -34.7148089723       34.7201931677        5.5503126475  MEMB      56              0.0000000000
      5103        56  POPE      C211          -34.8030054544       32.4439837131        5.6064169181  MEMB      56              0.0000000000
      5104        56  POPE      H11R          -35.7517805379       31.8717510347        5.5245822301  MEMB      56              0.0000000000
      5105        56  POPE      H11S          -34.2207014815       31.9111188696        6.3882718680  MEMB      56              0.0000000000
      5106        56  POPE      C212          -34.0299596792       32.1872148128        4.2260255728  MEMB      56              0.0000000000
      5107        56  POPE      H12R          -34.6173039920       32.5030017777        3.3374162070  MEMB      56              0.0000000000
      5108        56  POPE      H12S          -33.7333844400       31.1166282030        4.2404654838  MEMB      56              0.0000000000
      5109        56  POPE      C213          -32.6396963930       32.9378897767        4.1181995825  MEMB      56              0.0000000000
      5110        56  POPE      H13R          -32.2078656820       32.8471938289        5.1378162518  MEMB      56              0.0000000000
      5111        56  POPE      H13S          -32.8572082924       34.0226167860        4.0163324219  MEMB      56              0.0000000000
      5112        56  POPE      C214          -31.7664689886       32.5861256216        2.9608436557  MEMB      56              0.0000000000
      5113        56  POPE      H14R          -32.1505850145       32.9675989521        1.9906617078  MEMB      56              0.0000000000
      5114        56  POPE      H14S          -31.8278259070       31.4796015810        2.8823520490  MEMB      56              0.0000000000
      5115        56  POPE      C215          -30.3238864154       33.0613413230        3.1512084826  MEMB      56              0.0000000000
      5116        56  POPE      H15R          -29.6592793985       32.7705731166        2.3097380326  MEMB      56              0.0000000000
      5117        56  POPE      H15S          -29.9920399659       32.4275988989        4.0012493763  MEMB      56              0.0000000000
      5118        56  POPE      C216          -30.1413151292       34.5674398097        3.4176375539  MEMB      56              0.0000000000
      5119        56  POPE      H16R          -29.0857405605       34.8562102841        3.6091963547  MEMB      56              0.0000000000
      5120        56  POPE      H16S          -30.7716564678       34.7918843178        4.3045503224  MEMB      56              0.0000000000
      5121        56  POPE      C217          -30.6937123195       35.5703350510        2.3484207696  MEMB      56              0.0000000000
      5122        56  POPE      H17R          -30.6727345105       36.5383767842        2.8931911595  MEMB      56              0.0000000000
      5123        56  POPE      H17S          -31.7774907472       35.3514663513        2.2395996434  MEMB      56              0.0000000000
      5124        56  POPE      C218          -29.9153128870       35.5954056866        1.0331794314  MEMB      56              0.0000000000
      5125        56  POPE      H18R          -30.0999992785       34.7297232760        0.3617595530  MEMB      56              0.0000000000
      5126        56  POPE      H18S          -28.8365539463       35.6359611371        1.2957719975  MEMB      56              0.0000000000
      5127        56  POPE      H18T          -30.2261818783       36.4290011208        0.3677467644  MEMB      56              0.0000000000
      5128        56  POPE      C33           -29.6009038747       35.0150534408       12.4297058351  MEMB      56              0.0000000000
      5129        56  POPE      H3X           -30.0791829755       35.4539023302       11.5280509052  MEMB      56              0.0000000000
      5130        56  POPE      H3Y           -30.0066308825       33.9809702392       12.4491570136  MEMB      56              0.0000000000
      5131        56  POPE      C34           -28.0459604775       34.8803050982       12.1969359768  MEMB      56              0.0000000000
      5132        56  POPE      H4X           -27.5822146041       34.9829655910       13.2012875372  MEMB      56              0.0000000000
      5133        56  POPE      H4Y           -27.7569269911       35.7186980832       11.5276992724  MEMB      56              0.0000000000
      5134        56  POPE      C35           -27.5519828461       33.6146165242       11.5072798159  MEMB      56              0.0000000000
      5135        56  POPE      H5X           -28.0503610289       32.8670356973       12.1607803448  MEMB      56              0.0000000000
      5136        56  POPE      H5Y           -26.4620092750       33.4349420118       11.6255825728  MEMB      56              0.0000000000
      5137        56  POPE      C36           -28.2260510644       33.2709932863       10.1380949406  MEMB      56              0.0000000000
      5138        56  POPE      H6X           -28.0513655660       34.0878854868        9.4056379921  MEMB      56              0.0000000000
      5139        56  POPE      H6Y           -29.3347685193       33.2321155555       10.1977196732  MEMB      56              0.0000000000
      5140        56  POPE      C37           -27.8215321245       32.0468626146        9.3908735613  MEMB      56              0.0000000000
      5141        56  POPE      H7X           -27.9643742456       31.2025045385       10.0986706312  MEMB      56              0.0000000000
      5142        56  POPE      H7Y           -26.7311685765       32.0644322875        9.1784603966  MEMB      56              0.0000000000
      5143        56  POPE      C38           -28.6705361624       31.9093066188        8.1223026312  MEMB      56              0.0000000000
      5144        56  POPE      H8X           -28.3733370332       32.7393821892        7.4463079600  MEMB      56              0.0000000000
      5145        56  POPE      H8Y           -29.7552576802       32.0737909949        8.2973590203  MEMB      56              0.0000000000
      5146        56  POPE      C39           -28.6049243475       30.5651486923        7.3779370950  MEMB      56              0.0000000000
      5147        56  POPE      H9X           -27.5785170498       30.1695330271        7.2220618012  MEMB      56              0.0000000000
      5148        56  POPE      H9Y           -29.1457169444       30.7847846971        6.4326201570  MEMB      56              0.0000000000
      5149        56  POPE      C310          -29.3064506241       29.4002049997        8.1539788855  MEMB      56              0.0000000000
      5150        56  POPE      H10X          -30.3446379552       29.6794912444        8.4341352761  MEMB      56              0.0000000000
      5151        56  POPE      H10Y          -28.7382570171       29.4648565654        9.1065002764  MEMB      56              0.0000000000
      5152        56  POPE      C311          -29.2107255013       28.0634179691        7.4644845303  MEMB      56              0.0000000000
      5153        56  POPE      H11X          -29.5586155922       27.2040951827        8.0767404208  MEMB      56              0.0000000000
      5154        56  POPE      H11Y          -28.1675498430       27.7390731693        7.2622316428  MEMB      56              0.0000000000
      5155        56  POPE      C312          -29.9004878982       27.9606061817        6.0654984505  MEMB      56              0.0000000000
      5156        56  POPE      H12X          -29.9199779792       26.8788506763        5.8130178321  MEMB      56              0.0000000000
      5157        56  POPE      H12Y          -29.4930162322       28.5802606212        5.2382648341  MEMB      56              0.0000000000
      5158        56  POPE      C313          -31.4470453608       28.3147135240        6.1428016883  MEMB      56              0.0000000000
      5159        56  POPE      H13X          -31.5676617393       29.4131475376        6.2577602831  MEMB      56              0.0000000000
      5160        56  POPE      H13Y          -31.9558799434       27.7797133374        6.9729721780  MEMB      56              0.0000000000
      5161        56  POPE      C314          -32.3344107108       27.9606667794        4.8853700460  MEMB      56              0.0000000000
      5162        56  POPE      H14X          -32.9859289071       28.8284387330        4.6470074644  MEMB      56              0.0000000000
      5163        56  POPE      H14Y          -33.0555043555       27.1701157830        5.1843248756  MEMB      56              0.0000000000
      5164        56  POPE      C315          -31.7208895724       27.5331544463        3.5517904294  MEMB      56              0.0000000000
      5165        56  POPE      H15X          -31.2711115171       26.5314719178        3.7210617474  MEMB      56              0.0000000000
      5166        56  POPE      H15Y          -30.9595218556       28.2241940858        3.1309518215  MEMB      56              0.0000000000
      5167        56  POPE      C316          -32.7086631783       27.4681980674        2.3659922817  MEMB      56              0.0000000000
      5168        56  POPE      H16X          -33.4779191578       28.2614154384        2.2503529271  MEMB      56              0.0000000000
      5169        56  POPE      H16Y          -33.2117975796       26.4858386831        2.2389227862  MEMB      56              0.0000000000
      5170        56  POPE      H16Z          -32.1287712076       27.5062702445        1.4191045821  MEMB      56              0.0000000000
      5171        57  POPC      N              13.8345441428       25.3827485832       18.4551603494  MEMB      57              0.0000000000
      5172        57  POPC      C12            13.1690724805       24.2103277542       17.9711372783  MEMB      57              0.0000000000
      5173        57  POPC      H12A           13.8593877915       23.6648203357       17.3448096061  MEMB      57              0.0000000000
      5174        57  POPC      H12B           12.3160136580       24.5321238502       17.3922262343  MEMB      57              0.0000000000
      5175        57  POPC      C13            14.9893429179       24.9895902897       19.4333354609  MEMB      57              0.0000000000
      5176        57  POPC      H13A           15.6319455652       25.8466238440       19.5710119636  MEMB      57              0.0000000000
      5177        57  POPC      H13B           14.5750690170       24.7048456449       20.3892107433  MEMB      57              0.0000000000
      5178        57  POPC      H13C           15.3280789138       24.1136330599       18.9000840619  MEMB      57              0.0000000000
      5179        57  POPC      C14            14.4555724433       26.0365141775       17.2525473201  MEMB      57              0.0000000000
      5180        57  POPC      H14A           14.9159928069       25.2407921129       16.6857673195  MEMB      57              0.0000000000
      5181        57  POPC      H14B           13.8272584523       26.5000706937       16.5063992922  MEMB      57              0.0000000000
      5182        57  POPC      H14C           15.2096979344       26.7428203689       17.5669130290  MEMB      57              0.0000000000
      5183        57  POPC      C15            12.9149681838       26.3391309239       19.1825727705  MEMB      57              0.0000000000
      5184        57  POPC      H15A           11.9742016512       26.5443185139       18.6934343164  MEMB      57              0.0000000000
      5185        57  POPC      H15B           13.3116635631       27.3394166646       19.2745569325  MEMB      57              0.0000000000
      5186        57  POPC      H15C           12.7120040091       25.9126491478       20.1538188153  MEMB      57              0.0000000000
      5187        57  POPC      C11            12.5774754931       23.0919391524       18.9176604575  MEMB      57              0.0000000000
      5188        57  POPC      H11A           13.4270322198       22.6290781956       19.4638603907  MEMB      57              0.0000000000
      5189        57  POPC      H11B           12.1863988232       22.3368138425       18.2027018693  MEMB      57              0.0000000000
      5190        57  POPC      P              10.1220858580       23.0782467647       19.6134351286  MEMB      57              0.0000000000
      5191        57  POPC      O13             9.2073157617       23.8565557960       20.4902716433  MEMB      57              0.0000000000
      5192        57  POPC      O14            10.0955475634       21.5641451544       19.8201831832  MEMB      57              0.0000000000
      5193        57  POPC      O12            11.6007078430       23.7611694392       19.7425639926  MEMB      57              0.0000000000
      5194        57  POPC      O11             9.7045631087       23.4711688630       18.1211324208  MEMB      57              0.0000000000
      5195        57  POPC      C1              9.7331752566       22.4994904246       17.0228790171  MEMB      57              0.0000000000
      5196        57  POPC      HA              8.7545474377       22.0097157758       16.8312303913  MEMB      57              0.0000000000
      5197        57  POPC      HB             10.4273194456       21.6354083598       17.0993452045  MEMB      57              0.0000000000
      5198        57  POPC      C2             10.1613714310       23.2058207585       15.7067867348  MEMB      57              0.0000000000
      5199        57  POPC      HS             11.2622244179       23.3310126455       15.7890704113  MEMB      57              0.0000000000
      5200        57  POPC      O21             9.4099484257       24.4062481933       15.5916322541  MEMB      57              0.0000000000
      5201        57  POPC      C21            10.1029915308       25.4974422439       15.4456333436  MEMB      57              0.0000000000
      5202        57  POPC      O22            11.2677476354       25.6422905242       15.7785503884  MEMB      57              0.0000000000
      5203        57  POPC      C22             9.1691265802       26.5936809269       15.0735113401  MEMB      57              0.0000000000
      5204        57  POPC      H2R             8.9048900766       27.2020460742       15.9647979922  MEMB      57              0.0000000000
      5205        57  POPC      H2S             8.2508170389       26.2262459991       14.5675270451  MEMB      57              0.0000000000
      5206        57  POPC      C3              9.9296109369       22.3769597727       14.4375249273  MEMB      57              0.0000000000
      5207        57  POPC      HX              8.9606335847       21.8334904485       14.4307880974  MEMB      57              0.0000000000
      5208        57  POPC      HY             10.7685310797       21.6497522838       14.4787952788  MEMB      57              0.0000000000
      5209        57  POPC      O31            10.0203094644       23.1911191805       13.2909631610  MEMB      57              0.0000000000
      5210        57  POPC      C31            10.0323379295       22.4741242295       12.1428874570  MEMB      57              0.0000000000
      5211        57  POPC      O32            10.0122520667       21.2505716877       12.1211067491  MEMB      57              0.0000000000
      5212        57  POPC      C32             9.8566088807       23.3990442579       10.9123171704  MEMB      57              0.0000000000
      5213        57  POPC      H2X            10.7960608190       23.9917507944       10.9335339983  MEMB      57              0.0000000000
      5214        57  POPC      H2Y             9.0921794664       24.1973498059       11.0249090323  MEMB      57              0.0000000000
      5215        57  POPC      C23             9.7256795786       27.4307683949       13.8667378195  MEMB      57              0.0000000000
      5216        57  POPC      H3R            10.8095424489       27.5999986164       14.0425882475  MEMB      57              0.0000000000
      5217        57  POPC      H3S             9.1603773094       28.3865790526       13.9010995824  MEMB      57              0.0000000000
      5218        57  POPC      C24             9.6828207183       26.7965590772       12.4721129004  MEMB      57              0.0000000000
      5219        57  POPC      H4R             8.6363460075       26.6023465581       12.1535328127  MEMB      57              0.0000000000
      5220        57  POPC      H4S            10.1431190931       25.7886389619       12.5530038392  MEMB      57              0.0000000000
      5221        57  POPC      C25            10.3394996649       27.6693895657       11.4107584524  MEMB      57              0.0000000000
      5222        57  POPC      H5R            11.3877968446       27.8578946731       11.7267648209  MEMB      57              0.0000000000
      5223        57  POPC      H5S             9.8517698070       28.6646281649       11.3336818313  MEMB      57              0.0000000000
      5224        57  POPC      C26            10.3483757642       27.0930119317       10.0100756354  MEMB      57              0.0000000000
      5225        57  POPC      H6R             9.3137645785       27.2089327355        9.6221802059  MEMB      57              0.0000000000
      5226        57  POPC      H6S            10.5243902953       25.9999027967       10.1020109138  MEMB      57              0.0000000000
      5227        57  POPC      C27            11.2479481004       27.6861479086        8.9137534088  MEMB      57              0.0000000000
      5228        57  POPC      H7R            11.0062327116       28.7691444851        8.8588665239  MEMB      57              0.0000000000
      5229        57  POPC      H7S            10.9650722242       27.4129013111        7.8746967668  MEMB      57              0.0000000000
      5230        57  POPC      C28            12.7412243091       27.4240124198        9.2409205466  MEMB      57              0.0000000000
      5231        57  POPC      H8R            12.7841781657       27.3034359939       10.3445224165  MEMB      57              0.0000000000
      5232        57  POPC      H8S            13.3257914491       28.3337001829        8.9858320857  MEMB      57              0.0000000000
      5233        57  POPC      C29            13.2564302591       26.1457028832        8.6112246124  MEMB      57              0.0000000000
      5234        57  POPC      H91            13.0511909690       25.2008099673        9.1356802827  MEMB      57              0.0000000000
      5235        57  POPC      C210           13.9301699699       26.1718739755        7.4340492514  MEMB      57              0.0000000000
      5236        57  POPC      H101           14.3945760380       25.2238647470        7.1248481409  MEMB      57              0.0000000000
      5237        57  POPC      C211           14.3142308016       27.3764081416        6.6236635295  MEMB      57              0.0000000000
      5238        57  POPC      H11R           15.3117998578       27.7823036114        6.8964737359  MEMB      57              0.0000000000
      5239        57  POPC      H11S           13.6740179527       28.2405012970        6.9025754299  MEMB      57              0.0000000000
      5240        57  POPC      C212           14.1091741058       27.3763943819        5.1151889619  MEMB      57              0.0000000000
      5241        57  POPC      H12R           14.7734234724       26.6086141163        4.6639604011  MEMB      57              0.0000000000
      5242        57  POPC      H12S           14.4571191661       28.3678217626        4.7541801992  MEMB      57              0.0000000000
      5243        57  POPC      C213           12.7326352759       26.9877672193        4.6561838431  MEMB      57              0.0000000000
      5244        57  POPC      H13R           12.0739129207       27.7245019412        5.1637543963  MEMB      57              0.0000000000
      5245        57  POPC      H13S           12.4720995017       25.9664944483        5.0075299974  MEMB      57              0.0000000000
      5246        57  POPC      C214           12.5750721718       26.9678300556        3.1478375991  MEMB      57              0.0000000000
      5247        57  POPC      H14R           12.8284615391       27.9877625805        2.7874870952  MEMB      57              0.0000000000
      5248        57  POPC      H14S           11.5393722280       26.7093096537        2.8399193293  MEMB      57              0.0000000000
      5249        57  POPC      C215           13.5913271945       26.1355475420        2.3287220054  MEMB      57              0.0000000000
      5250        57  POPC      H15R           14.5917601312       26.5542702955        2.5698157684  MEMB      57              0.0000000000
      5251        57  POPC      H15S           13.3842543960       26.4097977869        1.2722051470  MEMB      57              0.0000000000
      5252        57  POPC      C216           13.3528962923       24.6387287509        2.3812910002  MEMB      57              0.0000000000
      5253        57  POPC      H16R           12.3863472467       24.4387223058        1.8712891930  MEMB      57              0.0000000000
      5254        57  POPC      H16S           13.2289263109       24.2514503472        3.4151998257  MEMB      57              0.0000000000
      5255        57  POPC      C217           14.4641954933       23.9234448702        1.5862962452  MEMB      57              0.0000000000
      5256        57  POPC      H17R           15.4283848793       24.2165763656        2.0539857665  MEMB      57              0.0000000000
      5257        57  POPC      H17S           14.5999976609       24.4191836183        0.6013485438  MEMB      57              0.0000000000
      5258        57  POPC      C218           14.3368518275       22.3541812171        1.4982950077  MEMB      57              0.0000000000
      5259        57  POPC      H18R           15.2199498758       22.0131861175        0.9167628932  MEMB      57              0.0000000000
      5260        57  POPC      H18S           13.3678915935       22.0861621788        1.0254283169  MEMB      57              0.0000000000
      5261        57  POPC      H18T           14.3282137063       22.0042288319        2.5527051511  MEMB      57              0.0000000000
      5262        57  POPC      C33             9.6073192561       22.5666333495        9.5972845360  MEMB      57              0.0000000000
      5263        57  POPC      H3X             9.1982313821       21.5544440518        9.8032965887  MEMB      57              0.0000000000
      5264        57  POPC      H3Y            10.5037466425       22.3988172111        8.9627950301  MEMB      57              0.0000000000
      5265        57  POPC      C34             8.6618268534       23.3691034826        8.6128182528  MEMB      57              0.0000000000
      5266        57  POPC      H4X             9.1983794064       24.3217847398        8.4157626690  MEMB      57              0.0000000000
      5267        57  POPC      H4Y             7.7207576337       23.6494555405        9.1325419873  MEMB      57              0.0000000000
      5268        57  POPC      C35             8.4194298896       22.6478255953        7.3160156538  MEMB      57              0.0000000000
      5269        57  POPC      H5X             7.9848838894       21.6546643440        7.5591651017  MEMB      57              0.0000000000
      5270        57  POPC      H5Y             9.3752579991       22.5573763176        6.7569701100  MEMB      57              0.0000000000
      5271        57  POPC      C36             7.2551129848       23.2682774053        6.4746053317  MEMB      57              0.0000000000
      5272        57  POPC      H6X             6.3417614512       23.2019339190        7.1036593286  MEMB      57              0.0000000000
      5273        57  POPC      H6Y             7.1646919823       22.6540589687        5.5532582572  MEMB      57              0.0000000000
      5274        57  POPC      C37             7.4626821101       24.7696044979        6.1021383650  MEMB      57              0.0000000000
      5275        57  POPC      H7X             7.5601055882       25.4354205993        6.9861735332  MEMB      57              0.0000000000
      5276        57  POPC      H7Y             6.5500847043       25.1629878253        5.6054121239  MEMB      57              0.0000000000
      5277        57  POPC      C38             8.6958904253       25.0877497374        5.2435720572  MEMB      57              0.0000000000
      5278        57  POPC      H8X             9.6647275340       25.0013108828        5.7804176507  MEMB      57              0.0000000000
      5279        57  POPC      H8Y             8.6346074896       26.1456793867        4.9098803215  MEMB      57              0.0000000000
      5280        57  POPC      C39             8.7900734493       24.1088286558        4.0510423218  MEMB      57              0.0000000000
      5281        57  POPC      H9X             7.8311801627       23.8886223349        3.5349477647  MEMB      57              0.0000000000
      5282        57  POPC      H9Y             9.2079375917       23.1660972049        4.4645248426  MEMB      57              0.0000000000
      5283        57  POPC      C310            9.6702324655       24.6858957418        2.9057406727  MEMB      57              0.0000000000
      5284        57  POPC      H10X           10.7457335992       24.7288386509        3.1810120070  MEMB      57              0.0000000000
      5285        57  POPC      H10Y            9.3462954037       25.7441369451        2.8082161739  MEMB      57              0.0000000000
      5286        57  POPC      C311            9.4313526154       24.0051296338        1.5296382863  MEMB      57              0.0000000000
      5287        57  POPC      H11X           10.0258787251       24.5816837913        0.7890674150  MEMB      57              0.0000000000
      5288        57  POPC      H11Y            8.3282202366       24.0725860085        1.4161932910  MEMB      57              0.0000000000
      5289        57  POPC      C312            9.7497985279       22.4911500634        1.4882649499  MEMB      57              0.0000000000
      5290        57  POPC      H12X            9.1528997298       21.9469756864        2.2510939684  MEMB      57              0.0000000000
      5291        57  POPC      H12Y           10.8114642179       22.5088754309        1.8151779331  MEMB      57              0.0000000000
      5292        57  POPC      C313            9.5906490572       21.7456591852        0.1798601722  MEMB      57              0.0000000000
      5293        57  POPC      H13X            8.5549364733       21.4076734557       -0.0378233748  MEMB      57              0.0000000000
      5294        57  POPC      H13Y           10.1948632630       20.8269655172        0.3387569071  MEMB      57              0.0000000000
      5295        57  POPC      C314           10.1582250986       22.4070945041       -1.0689610827  MEMB      57              0.0000000000
      5296        57  POPC      H14X           11.0036939103       23.1042540408       -0.8860055785  MEMB      57              0.0000000000
      5297        57  POPC      H14Y            9.3759525759       23.1125219132       -1.4221504150  MEMB      57              0.0000000000
      5298        57  POPC      C315           10.5441445717       21.3832797372       -2.2223297353  MEMB      57              0.0000000000
      5299        57  POPC      H15X           10.2598025427       22.0012719798       -3.1007132372  MEMB      57              0.0000000000
      5300        57  POPC      H15Y            9.9682591817       20.4331937792       -2.2186427499  MEMB      57              0.0000000000
      5301        57  POPC      C316           12.0330083896       21.0127697185       -2.3094115106  MEMB      57              0.0000000000
      5302        57  POPC      H16X           12.7457959175       21.8498367541       -2.1494957264  MEMB      57              0.0000000000
      5303        57  POPC      H16Y           12.1686189145       20.5732870327       -3.3207415440  MEMB      57              0.0000000000
      5304        57  POPC      H16Z           12.2016245882       20.2979693623       -1.4757750372  MEMB      57              0.0000000000
      5305        58  POPE      N              -5.1251946294       26.0301052356       18.1359743698  MEMB      58              0.0000000000
      5306        58  POPE      HN1            -5.8932453069       25.3874113254       17.8555414896  MEMB      58              0.0000000000
      5307        58  POPE      HN2            -5.0209224700       25.9995937702       19.1702839555  MEMB      58              0.0000000000
      5308        58  POPE      HN3            -5.3278517749       27.0232931657       17.9033631432  MEMB      58              0.0000000000
      5309        58  POPE      C12            -3.8744322645       25.4065899752       17.5819697959  MEMB      58              0.0000000000
      5310        58  POPE      H12A           -2.9630023419       25.8417108143       18.0448804474  MEMB      58              0.0000000000
      5311        58  POPE      H12B           -3.8522445033       25.6277992096       16.4934410084  MEMB      58              0.0000000000
      5312        58  POPE      C11            -3.8024998531       23.8818205640       17.9644379382  MEMB      58              0.0000000000
      5313        58  POPE      H11A           -2.7998720814       23.4850201835       17.6968415622  MEMB      58              0.0000000000
      5314        58  POPE      H11B           -4.4626528821       23.3327208174       17.2594497057  MEMB      58              0.0000000000
      5315        58  POPE      P              -4.4988360948       22.2980672096       19.7306608401  MEMB      58              0.0000000000
      5316        58  POPE      O13            -4.8737089342       22.3270707058       21.1299860993  MEMB      58              0.0000000000
      5317        58  POPE      O14            -3.5076448394       21.3390956651       19.2485085821  MEMB      58              0.0000000000
      5318        58  POPE      O11            -5.8218676212       22.1939764655       18.8474585531  MEMB      58              0.0000000000
      5319        58  POPE      O12            -4.0745254427       23.7399821802       19.3610038192  MEMB      58              0.0000000000
      5320        58  POPE      C1             -6.6163987301       20.9278558453       18.8447119678  MEMB      58              0.0000000000
      5321        58  POPE      HA             -7.5596040394       21.1762828518       19.3766599455  MEMB      58              0.0000000000
      5322        58  POPE      HB             -6.1538747191       20.1877754715       19.5322245165  MEMB      58              0.0000000000
      5323        58  POPE      C2             -6.7169842400       20.3043038407       17.4179064711  MEMB      58              0.0000000000
      5324        58  POPE      HS             -6.8674748316       19.2039197721       17.4466955809  MEMB      58              0.0000000000
      5325        58  POPE      O21            -5.4224610706       20.4378221235       16.7895559237  MEMB      58              0.0000000000
      5326        58  POPE      C21            -5.0681844710       19.9278748464       15.5737251455  MEMB      58              0.0000000000
      5327        58  POPE      O22            -5.6374747647       19.0155171345       15.0233539232  MEMB      58              0.0000000000
      5328        58  POPE      C22            -3.7535193197       20.6666075722       15.1587690129  MEMB      58              0.0000000000
      5329        58  POPE      H2R            -3.2032831838       20.6892257859       16.1236780419  MEMB      58              0.0000000000
      5330        58  POPE      H2S            -4.0858254123       21.6442276344       14.7487047302  MEMB      58              0.0000000000
      5331        58  POPE      C3             -7.7773459156       21.0770288824       16.5011039960  MEMB      58              0.0000000000
      5332        58  POPE      HX             -8.7991142887       21.0884870868       16.9371995862  MEMB      58              0.0000000000
      5333        58  POPE      HY             -7.7300421600       20.5044033408       15.5502182823  MEMB      58              0.0000000000
      5334        58  POPE      O31            -7.3423758564       22.4095894971       16.2044642791  MEMB      58              0.0000000000
      5335        58  POPE      C31            -7.3628378055       22.9277776432       15.0127443165  MEMB      58              0.0000000000
      5336        58  POPE      O32            -7.7797216801       22.4476769257       13.9606574704  MEMB      58              0.0000000000
      5337        58  POPE      C32            -6.6878347970       24.3276024401       15.1286727344  MEMB      58              0.0000000000
      5338        58  POPE      H2X            -5.7309594230       24.2055162474       15.6798582421  MEMB      58              0.0000000000
      5339        58  POPE      H2Y            -7.3763457006       25.0357902939       15.6373408836  MEMB      58              0.0000000000
      5340        58  POPE      C23            -2.9871111124       20.0047954686       14.0468900461  MEMB      58              0.0000000000
      5341        58  POPE      H3R            -3.0520117367       18.9004189902       14.1491736032  MEMB      58              0.0000000000
      5342        58  POPE      H3S            -1.9132174499       20.2746101860       13.9559313549  MEMB      58              0.0000000000
      5343        58  POPE      C24            -3.6980880184       20.4424802564       12.6748751340  MEMB      58              0.0000000000
      5344        58  POPE      H4R            -3.3912213468       21.4818039466       12.4300070634  MEMB      58              0.0000000000
      5345        58  POPE      H4S            -4.7917174706       20.3872612362       12.8626154846  MEMB      58              0.0000000000
      5346        58  POPE      C25            -3.2594436031       19.5685681736       11.4796349611  MEMB      58              0.0000000000
      5347        58  POPE      H5R            -3.4147286252       18.5181895894       11.8066101975  MEMB      58              0.0000000000
      5348        58  POPE      H5S            -2.1956608683       19.7937108995       11.2516043453  MEMB      58              0.0000000000
      5349        58  POPE      C26            -3.9002343678       19.7805068857       10.1241941894  MEMB      58              0.0000000000
      5350        58  POPE      H6R            -4.9587597085       19.4611836710       10.2331793683  MEMB      58              0.0000000000
      5351        58  POPE      H6S            -3.3958145713       19.2227303494        9.3064131618  MEMB      58              0.0000000000
      5352        58  POPE      C27            -3.9820225498       21.2580416195        9.6206791227  MEMB      58              0.0000000000
      5353        58  POPE      H7R            -3.0612984002       21.8401245679        9.8392367663  MEMB      58              0.0000000000
      5354        58  POPE      H7S            -4.7677331940       21.6912371758       10.2759054766  MEMB      58              0.0000000000
      5355        58  POPE      C28            -4.3888126365       21.4835930489        8.1618811652  MEMB      58              0.0000000000
      5356        58  POPE      H8R            -4.4202216786       22.5868963507        8.0351685530  MEMB      58              0.0000000000
      5357        58  POPE      H8S            -5.4297899940       21.1114266022        8.0515214541  MEMB      58              0.0000000000
      5358        58  POPE      C29            -3.5177012904       20.7074713405        7.1669453279  MEMB      58              0.0000000000
      5359        58  POPE      H91            -3.2112440486       19.6979972577        7.4784681514  MEMB      58              0.0000000000
      5360        58  POPE      C210           -2.8471804841       21.1916149794        6.1286981500  MEMB      58              0.0000000000
      5361        58  POPE      H101           -2.1915564448       20.5604842504        5.5107731567  MEMB      58              0.0000000000
      5362        58  POPE      C211           -2.8308612497       22.6009149941        5.7279936283  MEMB      58              0.0000000000
      5363        58  POPE      H11R           -1.9638980210       23.0707074742        6.2398442696  MEMB      58              0.0000000000
      5364        58  POPE      H11S           -3.7788304338       23.1226907206        5.9798384564  MEMB      58              0.0000000000
      5365        58  POPE      C212           -2.5098757287       22.7103362033        4.2056575710  MEMB      58              0.0000000000
      5366        58  POPE      H12R           -3.3552202206       22.4280149507        3.5423259288  MEMB      58              0.0000000000
      5367        58  POPE      H12S           -1.6557054973       22.0549215813        3.9315297633  MEMB      58              0.0000000000
      5368        58  POPE      C213           -2.0225804227       24.0755922685        3.8997537875  MEMB      58              0.0000000000
      5369        58  POPE      H13R           -1.4602194868       24.5375169951        4.7392164352  MEMB      58              0.0000000000
      5370        58  POPE      H13S           -2.9338212667       24.7046869495        3.8091950610  MEMB      58              0.0000000000
      5371        58  POPE      C214           -1.1795174212       24.2037036490        2.5930975955  MEMB      58              0.0000000000
      5372        58  POPE      H14R           -0.2308264844       23.6335656357        2.6892727152  MEMB      58              0.0000000000
      5373        58  POPE      H14S           -0.9160826597       25.2775664148        2.4847402524  MEMB      58              0.0000000000
      5374        58  POPE      C215           -1.8836383054       24.0300600994        1.2442214895  MEMB      58              0.0000000000
      5375        58  POPE      H15R           -2.5192163479       24.9399535277        1.2937717828  MEMB      58              0.0000000000
      5376        58  POPE      H15S           -2.7178026654       23.2962730097        1.2510789849  MEMB      58              0.0000000000
      5377        58  POPE      C216           -1.0685272506       24.0782491495       -0.0213761243  MEMB      58              0.0000000000
      5378        58  POPE      H16R           -1.6786681235       23.6905203607       -0.8650083129  MEMB      58              0.0000000000
      5379        58  POPE      H16S           -0.1320132543       23.4921684468        0.0959782614  MEMB      58              0.0000000000
      5380        58  POPE      C217           -0.8076818647       25.5593315428       -0.4198313684  MEMB      58              0.0000000000
      5381        58  POPE      H17R           -0.1372780523       26.0003282393        0.3485450616  MEMB      58              0.0000000000
      5382        58  POPE      H17S           -1.7079959676       26.1914784101       -0.2644416190  MEMB      58              0.0000000000
      5383        58  POPE      C218           -0.2464908660       25.6597682242       -1.7603674494  MEMB      58              0.0000000000
      5384        58  POPE      H18R            0.7640407738       25.2069108910       -1.8501804268  MEMB      58              0.0000000000
      5385        58  POPE      H18S           -0.1528980598       26.7239801616       -2.0653485141  MEMB      58              0.0000000000
      5386        58  POPE      H18T           -0.8088740239       25.0728930017       -2.5177458537  MEMB      58              0.0000000000
      5387        58  POPE      C33            -6.3394101704       24.6977258852       13.6496713456  MEMB      58              0.0000000000
      5388        58  POPE      H3X            -5.9481575747       25.7372258383       13.6757931034  MEMB      58              0.0000000000
      5389        58  POPE      H3Y            -7.2212636014       24.6987301599       12.9739091097  MEMB      58              0.0000000000
      5390        58  POPE      C34            -5.1771992270       23.8766500452       12.9780438607  MEMB      58              0.0000000000
      5391        58  POPE      H4X            -5.2693036699       22.7816604674       13.1418595516  MEMB      58              0.0000000000
      5392        58  POPE      H4Y            -4.3380114776       24.0607975463       13.6824406527  MEMB      58              0.0000000000
      5393        58  POPE      C35            -4.7901861915       24.0941146658       11.5415983664  MEMB      58              0.0000000000
      5394        58  POPE      H5X            -5.6955689810       23.6732959813       11.0542438455  MEMB      58              0.0000000000
      5395        58  POPE      H5Y            -3.9851986718       23.4279226931       11.1641009823  MEMB      58              0.0000000000
      5396        58  POPE      C36            -4.4701907742       25.5535825539       11.0499466711  MEMB      58              0.0000000000
      5397        58  POPE      H6X            -3.5641718154       25.8038261811       11.6422548311  MEMB      58              0.0000000000
      5398        58  POPE      H6Y            -5.3150376999       26.2343448573       11.2889394660  MEMB      58              0.0000000000
      5399        58  POPE      C37            -4.2208631907       25.8053665676        9.5367099280  MEMB      58              0.0000000000
      5400        58  POPE      H7X            -3.4950396119       25.0836254606        9.1047484606  MEMB      58              0.0000000000
      5401        58  POPE      H7Y            -4.0435820853       26.8423078317        9.1794354022  MEMB      58              0.0000000000
      5402        58  POPE      C38            -5.4486973280       25.3879117153        8.6149947038  MEMB      58              0.0000000000
      5403        58  POPE      H8X            -5.5428271687       24.2906751804        8.7617343394  MEMB      58              0.0000000000
      5404        58  POPE      H8Y            -5.1136812842       25.3480552874        7.5564593779  MEMB      58              0.0000000000
      5405        58  POPE      C39            -6.7048665763       26.2386761898        8.8457107779  MEMB      58              0.0000000000
      5406        58  POPE      H9X            -6.2570222727       27.2386876411        8.6620446418  MEMB      58              0.0000000000
      5407        58  POPE      H9Y            -6.9595475790       26.2215002992        9.9269895387  MEMB      58              0.0000000000
      5408        58  POPE      C310           -7.7834598553       25.8688960239        7.8002105503  MEMB      58              0.0000000000
      5409        58  POPE      H10X           -8.6332082644       26.5691835043        7.9480144431  MEMB      58              0.0000000000
      5410        58  POPE      H10Y           -8.2451269270       24.8702241725        7.9546097583  MEMB      58              0.0000000000
      5411        58  POPE      C311           -7.3257389749       25.9465150468        6.3421788419  MEMB      58              0.0000000000
      5412        58  POPE      H11X           -6.4879304482       25.2210245509        6.2643235920  MEMB      58              0.0000000000
      5413        58  POPE      H11Y           -6.9953481466       27.0047632427        6.2695613453  MEMB      58              0.0000000000
      5414        58  POPE      C312           -8.3976830315       25.5330796582        5.3581973877  MEMB      58              0.0000000000
      5415        58  POPE      H12X           -9.1259534507       26.3717922655        5.3806602771  MEMB      58              0.0000000000
      5416        58  POPE      H12Y           -8.9319136596       24.5845269721        5.5799328327  MEMB      58              0.0000000000
      5417        58  POPE      C313           -7.8705040481       25.3520714235        3.8971953491  MEMB      58              0.0000000000
      5418        58  POPE      H13X           -7.5517982941       24.2917815507        3.8048202173  MEMB      58              0.0000000000
      5419        58  POPE      H13Y           -7.0125254882       26.0281224219        3.6943443275  MEMB      58              0.0000000000
      5420        58  POPE      C314           -8.9085386028       25.7879053146        2.8765215849  MEMB      58              0.0000000000
      5421        58  POPE      H14X           -9.3397053080       26.7200740906        3.3001699961  MEMB      58              0.0000000000
      5422        58  POPE      H14Y           -9.7534963724       25.0672464327        2.9084295790  MEMB      58              0.0000000000
      5423        58  POPE      C315           -8.3486618483       25.9732582718        1.4344892983  MEMB      58              0.0000000000
      5424        58  POPE      H15X           -7.7476985835       26.8950560172        1.5876336552  MEMB      58              0.0000000000
      5425        58  POPE      H15Y           -9.1575697676       26.2577652379        0.7280583475  MEMB      58              0.0000000000
      5426        58  POPE      C316           -7.4527466124       24.9317661936        0.7321301990  MEMB      58              0.0000000000
      5427        58  POPE      H16X           -7.9992540646       24.1671418542        0.1396769624  MEMB      58              0.0000000000
      5428        58  POPE      H16Y           -6.6913678467       24.4439838295        1.3776458155  MEMB      58              0.0000000000
      5429        58  POPE      H16Z           -6.8612211855       25.4757366844       -0.0350184371  MEMB      58              0.0000000000
      5430        59  POPE      N             -40.6327005594       26.5784624963       17.7781390790  MEMB      59              0.0000000000
      5431        59  POPE      HN1           -41.2919292796       26.4058876646       18.5637823444  MEMB      59              0.0000000000
      5432        59  POPE      HN2           -40.7998025556       27.4468435614       17.2307896368  MEMB      59              0.0000000000
      5433        59  POPE      HN3           -40.7130056133       25.8217435988       17.0692471023  MEMB      59              0.0000000000
      5434        59  POPE      C12           -39.2273373519       26.4725683283       18.3869640688  MEMB      59              0.0000000000
      5435        59  POPE      H12A          -38.3663870386       26.4226325727       17.6865414042  MEMB      59              0.0000000000
      5436        59  POPE      H12B          -39.1826143709       25.5454356814       18.9974931277  MEMB      59              0.0000000000
      5437        59  POPE      C11           -38.9366457852       27.6611261235       19.2629691510  MEMB      59              0.0000000000
      5438        59  POPE      H11A          -37.9458572812       27.3782653394       19.6784794304  MEMB      59              0.0000000000
      5439        59  POPE      H11B          -39.6754351656       27.5708223307       20.0878063548  MEMB      59              0.0000000000
      5440        59  POPE      P             -38.7085637448       30.1273169622       19.3930522578  MEMB      59              0.0000000000
      5441        59  POPE      O13           -37.4351598270       29.8573133098       20.0896494940  MEMB      59              0.0000000000
      5442        59  POPE      O14           -39.8764761177       30.4409027807       20.2306629182  MEMB      59              0.0000000000
      5443        59  POPE      O11           -38.4146810748       31.2260518253       18.2759335728  MEMB      59              0.0000000000
      5444        59  POPE      O12           -39.0616579455       28.8263766119       18.5826294837  MEMB      59              0.0000000000
      5445        59  POPE      C1            -39.4403590890       31.4244511073       17.2968166999  MEMB      59              0.0000000000
      5446        59  POPE      HA            -39.3805718042       32.4266327303       16.8210245267  MEMB      59              0.0000000000
      5447        59  POPE      HB            -40.4149798817       31.3505751954       17.8250000893  MEMB      59              0.0000000000
      5448        59  POPE      C2            -39.4259112794       30.6237012611       15.9919163549  MEMB      59              0.0000000000
      5449        59  POPE      HS            -39.3393269461       29.5323994347       16.1813482198  MEMB      59              0.0000000000
      5450        59  POPE      O21           -38.2773488223       31.0723071544       15.2719916171  MEMB      59              0.0000000000
      5451        59  POPE      C21           -37.7569199696       30.1712142470       14.4261120500  MEMB      59              0.0000000000
      5452        59  POPE      O22           -38.1771980698       29.0847219818       14.1885805404  MEMB      59              0.0000000000
      5453        59  POPE      C22           -36.5534006213       30.8315981575       13.6552236210  MEMB      59              0.0000000000
      5454        59  POPE      H2R           -35.7916082550       31.0588153147       14.4313454580  MEMB      59              0.0000000000
      5455        59  POPE      H2S           -36.9341295688       31.7235643779       13.1132250784  MEMB      59              0.0000000000
      5456        59  POPE      C3            -40.6890707812       30.8444951196       15.1486543609  MEMB      59              0.0000000000
      5457        59  POPE      HX            -40.7321856674       31.8482309621       14.6743370166  MEMB      59              0.0000000000
      5458        59  POPE      HY            -41.4379373403       30.8598394216       15.9691933264  MEMB      59              0.0000000000
      5459        59  POPE      O31           -40.8123156425       29.8368894336       14.0866204538  MEMB      59              0.0000000000
      5460        59  POPE      C31           -41.8315250860       29.0401271089       14.1788361165  MEMB      59              0.0000000000
      5461        59  POPE      O32           -42.7508089618       29.0737619902       14.9693278505  MEMB      59              0.0000000000
      5462        59  POPE      C32           -41.7347993246       27.9442802090       13.1033711283  MEMB      59              0.0000000000
      5463        59  POPE      H2X           -41.0919059851       27.1502345679       13.5398347035  MEMB      59              0.0000000000
      5464        59  POPE      H2Y           -41.2458495458       28.2547458067       12.1552884954  MEMB      59              0.0000000000
      5465        59  POPE      C23           -35.9340307197       29.9052827302       12.6435231337  MEMB      59              0.0000000000
      5466        59  POPE      H3R           -36.0062004588       28.8266869162       12.8999278137  MEMB      59              0.0000000000
      5467        59  POPE      H3S           -34.8835331277       30.2089218047       12.4471070081  MEMB      59              0.0000000000
      5468        59  POPE      C24           -36.6503846250       30.0246224667       11.2962471867  MEMB      59              0.0000000000
      5469        59  POPE      H4R           -36.3822250283       30.9976563622       10.8319017054  MEMB      59              0.0000000000
      5470        59  POPE      H4S           -37.7228164754       30.1590694920       11.5534141702  MEMB      59              0.0000000000
      5471        59  POPE      C25           -36.3392025821       28.9050126933       10.2686751887  MEMB      59              0.0000000000
      5472        59  POPE      H5R           -36.5405625429       27.9516294366       10.8023754932  MEMB      59              0.0000000000
      5473        59  POPE      H5S           -35.2449901852       28.9448522852       10.0804385620  MEMB      59              0.0000000000
      5474        59  POPE      C26           -36.9971451334       29.0662075037        8.8561612503  MEMB      59              0.0000000000
      5475        59  POPE      H6R           -36.6805689131       28.2614404065        8.1587016085  MEMB      59              0.0000000000
      5476        59  POPE      H6S           -36.6136486056       30.0131176089        8.4195697672  MEMB      59              0.0000000000
      5477        59  POPE      C27           -38.4861682807       29.1987023578        9.0206932720  MEMB      59              0.0000000000
      5478        59  POPE      H7R           -38.8606537121       30.0100334836        9.6808624771  MEMB      59              0.0000000000
      5479        59  POPE      H7S           -38.8090912636       28.2174001210        9.4294570772  MEMB      59              0.0000000000
      5480        59  POPE      C28           -39.2639586325       29.4270280767        7.7067029048  MEMB      59              0.0000000000
      5481        59  POPE      H8R           -40.3246672668       29.2180123907        7.9626926120  MEMB      59              0.0000000000
      5482        59  POPE      H8S           -38.8452599085       28.6337167383        7.0512111574  MEMB      59              0.0000000000
      5483        59  POPE      C29           -39.0403303520       30.8591724601        7.2060111984  MEMB      59              0.0000000000
      5484        59  POPE      H91           -39.3077726935       31.5806296222        7.9921242515  MEMB      59              0.0000000000
      5485        59  POPE      C210          -38.5533346448       31.2525218402        5.9672535309  MEMB      59              0.0000000000
      5486        59  POPE      H101          -38.3547477820       32.3270522439        5.8409705359  MEMB      59              0.0000000000
      5487        59  POPE      C211          -38.1488963016       30.4498930326        4.7532721351  MEMB      59              0.0000000000
      5488        59  POPE      H11R          -37.6637957635       29.4878773596        5.0244271357  MEMB      59              0.0000000000
      5489        59  POPE      H11S          -37.2797999155       30.9350589695        4.2597067671  MEMB      59              0.0000000000
      5490        59  POPE      C212          -39.1870016120       30.4061959878        3.5166035987  MEMB      59              0.0000000000
      5491        59  POPE      H12R          -39.3322029041       31.4293715534        3.1087449874  MEMB      59              0.0000000000
      5492        59  POPE      H12S          -40.1335062773       29.9607850341        3.8908485928  MEMB      59              0.0000000000
      5493        59  POPE      C213          -38.7482509372       29.4649770004        2.3109306468  MEMB      59              0.0000000000
      5494        59  POPE      H13R          -38.9771109263       28.4446531852        2.6862741030  MEMB      59              0.0000000000
      5495        59  POPE      H13S          -37.6660537786       29.6841895472        2.1879815487  MEMB      59              0.0000000000
      5496        59  POPE      C214          -39.5089035624       29.7633533671        0.9929239796  MEMB      59              0.0000000000
      5497        59  POPE      H14R          -40.2334184323       30.6007152848        1.0836100015  MEMB      59              0.0000000000
      5498        59  POPE      H14S          -40.1472397281       28.9374556478        0.6124765913  MEMB      59              0.0000000000
      5499        59  POPE      C215          -38.6218822047       30.2200201383       -0.1762108523  MEMB      59              0.0000000000
      5500        59  POPE      H15R          -39.1656901249       30.0697056973       -1.1332891690  MEMB      59              0.0000000000
      5501        59  POPE      H15S          -37.6963989660       29.6082532012       -0.1166819854  MEMB      59              0.0000000000
      5502        59  POPE      C216          -38.1167232421       31.6674068565       -0.0997813576  MEMB      59              0.0000000000
      5503        59  POPE      H16R          -37.5977002107       31.7934242329        0.8744143662  MEMB      59              0.0000000000
      5504        59  POPE      H16S          -38.9434056145       32.4038235735       -0.1925584353  MEMB      59              0.0000000000
      5505        59  POPE      C217          -37.1125197792       31.9798067656       -1.1127763730  MEMB      59              0.0000000000
      5506        59  POPE      H17R          -36.2083400899       31.3452138671       -0.9941533493  MEMB      59              0.0000000000
      5507        59  POPE      H17S          -36.7202651409       32.9856359557       -0.8505453380  MEMB      59              0.0000000000
      5508        59  POPE      C218          -37.5565841211       32.0995527509       -2.6156886271  MEMB      59              0.0000000000
      5509        59  POPE      H18R          -37.8962653290       31.1216945785       -3.0190886701  MEMB      59              0.0000000000
      5510        59  POPE      H18S          -36.6798757710       32.3823852073       -3.2367438446  MEMB      59              0.0000000000
      5511        59  POPE      H18T          -38.3110112715       32.9124353608       -2.6818876437  MEMB      59              0.0000000000
      5512        59  POPE      C33           -43.1109110203       27.4298626795       12.7775475554  MEMB      59              0.0000000000
      5513        59  POPE      H3X           -43.7931262197       27.1725966417       13.6158303334  MEMB      59              0.0000000000
      5514        59  POPE      H3Y           -42.9140785628       26.5023180135       12.1985499695  MEMB      59              0.0000000000
      5515        59  POPE      C34           -43.9686281683       28.2805820265       11.8588608086  MEMB      59              0.0000000000
      5516        59  POPE      H4X           -44.2023471259       29.2754532247       12.2946678555  MEMB      59              0.0000000000
      5517        59  POPE      H4Y           -44.9409776648       27.7607555356       11.7223396303  MEMB      59              0.0000000000
      5518        59  POPE      C35           -43.4320102076       28.4272823946       10.4007525142  MEMB      59              0.0000000000
      5519        59  POPE      H5X           -43.1639140318       27.3727331604       10.1763169584  MEMB      59              0.0000000000
      5520        59  POPE      H5Y           -42.5435645930       29.0943223529       10.3941802669  MEMB      59              0.0000000000
      5521        59  POPE      C36           -44.4784706028       28.8570933025        9.4129216470  MEMB      59              0.0000000000
      5522        59  POPE      H6X           -44.6974531742       29.9155702950        9.6698145479  MEMB      59              0.0000000000
      5523        59  POPE      H6Y           -45.3756108809       28.2094107663        9.5127588205  MEMB      59              0.0000000000
      5524        59  POPE      C37           -44.0721813614       28.9409588571        7.8825876082  MEMB      59              0.0000000000
      5525        59  POPE      H7X           -44.0539036148       27.9508559707        7.3789182093  MEMB      59              0.0000000000
      5526        59  POPE      H7Y           -43.0697729338       29.4057040417        7.9988229698  MEMB      59              0.0000000000
      5527        59  POPE      C38           -44.8875301060       29.8622958933        7.0098373974  MEMB      59              0.0000000000
      5528        59  POPE      H8X           -45.4408627825       30.6196378768        7.6053008244  MEMB      59              0.0000000000
      5529        59  POPE      H8Y           -45.6561782576       29.1624075470        6.6178454453  MEMB      59              0.0000000000
      5530        59  POPE      C39           -44.1923057084       30.4884965183        5.7492988676  MEMB      59              0.0000000000
      5531        59  POPE      H9X           -43.5938818966       29.7486793063        5.1758180268  MEMB      59              0.0000000000
      5532        59  POPE      H9Y           -43.4963350910       31.2603891258        6.1418904359  MEMB      59              0.0000000000
      5533        59  POPE      C310          -45.0892640466       31.1050283193        4.7321483211  MEMB      59              0.0000000000
      5534        59  POPE      H10X          -45.5059183984       32.0272717735        5.1906102875  MEMB      59              0.0000000000
      5535        59  POPE      H10Y          -45.9551795495       30.5165025768        4.3604639050  MEMB      59              0.0000000000
      5536        59  POPE      C311          -44.3200013102       31.6384483947        3.4462138370  MEMB      59              0.0000000000
      5537        59  POPE      H11X          -43.7846344514       30.7608236201        3.0249324725  MEMB      59              0.0000000000
      5538        59  POPE      H11Y          -43.5026273395       32.3188031044        3.7676764163  MEMB      59              0.0000000000
      5539        59  POPE      C312          -45.2359166515       32.2180675161        2.3302844954  MEMB      59              0.0000000000
      5540        59  POPE      H12X          -46.0132812681       32.8031493155        2.8666656552  MEMB      59              0.0000000000
      5541        59  POPE      H12Y          -45.7232545384       31.2798886606        1.9887537959  MEMB      59              0.0000000000
      5542        59  POPE      C313          -44.6357939000       33.0651564298        1.1933376191  MEMB      59              0.0000000000
      5543        59  POPE      H13X          -44.1363214547       33.9067954584        1.7191625288  MEMB      59              0.0000000000
      5544        59  POPE      H13Y          -45.4673733087       33.4140717160        0.5444487090  MEMB      59              0.0000000000
      5545        59  POPE      C314          -43.5945057141       32.4136919157        0.3376496745  MEMB      59              0.0000000000
      5546        59  POPE      H14X          -43.9566136976       31.5047462854       -0.1886732934  MEMB      59              0.0000000000
      5547        59  POPE      H14Y          -42.7667640405       32.1495461737        1.0300323357  MEMB      59              0.0000000000
      5548        59  POPE      C315          -42.9747706400       33.4187632732       -0.6008692699  MEMB      59              0.0000000000
      5549        59  POPE      H15X          -43.8530866606       33.5502644774       -1.2683930991  MEMB      59              0.0000000000
      5550        59  POPE      H15Y          -42.1257123502       32.9795308816       -1.1669930252  MEMB      59              0.0000000000
      5551        59  POPE      C316          -42.5377542150       34.7655423651        0.0630659048  MEMB      59              0.0000000000
      5552        59  POPE      H16X          -42.1314831341       35.4535807919       -0.7088596174  MEMB      59              0.0000000000
      5553        59  POPE      H16Y          -41.7447012402       34.6094867778        0.8253228489  MEMB      59              0.0000000000
      5554        59  POPE      H16Z          -43.4345646983       35.2676276736        0.4849213336  MEMB      59              0.0000000000
      5555        60  POPC      N              21.4069020034       -9.8375505639       19.7929229109  MEMB      60              0.0000000000
      5556        60  POPC      C12            20.2617534485       -9.1577367233       20.4725999476  MEMB      60              0.0000000000
      5557        60  POPC      H12A           20.5255535620       -8.1213442173       20.3219343564  MEMB      60              0.0000000000
      5558        60  POPC      H12B           20.3397621486       -9.2694266790       21.5439728034  MEMB      60              0.0000000000
      5559        60  POPC      C13            21.0714102759      -11.2854289106       20.0075030515  MEMB      60              0.0000000000
      5560        60  POPC      H13A           20.0667863319      -11.2962269180       19.6112530843  MEMB      60              0.0000000000
      5561        60  POPC      H13B           21.7354369195      -11.9490996448       19.4736396967  MEMB      60              0.0000000000
      5562        60  POPC      H13C           21.1441671625      -11.5045445396       21.0625361819  MEMB      60              0.0000000000
      5563        60  POPC      C14            21.5039871051       -9.5621917814       18.3126680321  MEMB      60              0.0000000000
      5564        60  POPC      H14A           21.7197498994       -8.5175717570       18.1435072814  MEMB      60              0.0000000000
      5565        60  POPC      H14B           22.2176922448      -10.2019532876       17.8149429563  MEMB      60              0.0000000000
      5566        60  POPC      H14C           20.5268182533       -9.7727461572       17.9037573074  MEMB      60              0.0000000000
      5567        60  POPC      C15            22.7274832945       -9.5667520751       20.4659337799  MEMB      60              0.0000000000
      5568        60  POPC      H15A           23.3881166686      -10.2125720919       19.9065765677  MEMB      60              0.0000000000
      5569        60  POPC      H15B           22.6368023191       -9.8074679608       21.5148535781  MEMB      60              0.0000000000
      5570        60  POPC      H15C           22.9840626356       -8.5406441952       20.2475999289  MEMB      60              0.0000000000
      5571        60  POPC      C11            18.8450907576       -9.5122802763       19.9002299730  MEMB      60              0.0000000000
      5572        60  POPC      H11A           18.1508396035       -9.0121124024       20.6088683935  MEMB      60              0.0000000000
      5573        60  POPC      H11B           18.5650010340      -10.5717578393       20.0829273146  MEMB      60              0.0000000000
      5574        60  POPC      P              18.3019748201       -7.7401670312       18.0193769604  MEMB      60              0.0000000000
      5575        60  POPC      O13            18.8681849235       -7.4764228908       16.6979871992  MEMB      60              0.0000000000
      5576        60  POPC      O14            18.6187641329       -6.7998094362       19.1003957003  MEMB      60              0.0000000000
      5577        60  POPC      O12            18.6529867679       -9.2604769837       18.4891942736  MEMB      60              0.0000000000
      5578        60  POPC      O11            16.8238763877       -7.7759757256       17.7411881169  MEMB      60              0.0000000000
      5579        60  POPC      C1             15.7437399109       -8.6350191732       18.3621815424  MEMB      60              0.0000000000
      5580        60  POPC      HA             14.7328756421       -8.1925325678       18.4913317964  MEMB      60              0.0000000000
      5581        60  POPC      HB             16.0736759864       -8.8700126217       19.3967062538  MEMB      60              0.0000000000
      5582        60  POPC      C2             15.4143337854       -9.9431196117       17.6213645295  MEMB      60              0.0000000000
      5583        60  POPC      HS             14.5925698629      -10.4247567004       18.1932483952  MEMB      60              0.0000000000
      5584        60  POPC      O21            16.6606595524      -10.7247047913       17.5176329427  MEMB      60              0.0000000000
      5585        60  POPC      C21            16.7776825248      -11.8868265402       18.1159796849  MEMB      60              0.0000000000
      5586        60  POPC      O22            16.0987774018      -12.2881093272       19.0557200203  MEMB      60              0.0000000000
      5587        60  POPC      C22            17.8715868138      -12.8076444799       17.4779767785  MEMB      60              0.0000000000
      5588        60  POPC      H2R            17.4989348646      -13.8320192271       17.6927064658  MEMB      60              0.0000000000
      5589        60  POPC      H2S            18.8240304426      -12.7098593464       18.0415457425  MEMB      60              0.0000000000
      5590        60  POPC      C3             14.8520743897       -9.7357258908       16.2091024393  MEMB      60              0.0000000000
      5591        60  POPC      HX             14.0405587589       -8.9782706695       16.2540970301  MEMB      60              0.0000000000
      5592        60  POPC      HY             14.3735595629      -10.7062547608       15.9572732648  MEMB      60              0.0000000000
      5593        60  POPC      O31            15.8236106630       -9.4563596266       15.1465452525  MEMB      60              0.0000000000
      5594        60  POPC      C31            15.8449734302       -8.2129977813       14.6987103371  MEMB      60              0.0000000000
      5595        60  POPC      O32            15.0813451220       -7.2821332635       15.0571834839  MEMB      60              0.0000000000
      5596        60  POPC      C32            16.9388709880       -8.1123569327       13.5838077590  MEMB      60              0.0000000000
      5597        60  POPC      H2X            17.1657923353       -9.0920202835       13.1114864325  MEMB      60              0.0000000000
      5598        60  POPC      H2Y            17.8862515131       -7.7500905994       14.0371888935  MEMB      60              0.0000000000
      5599        60  POPC      C23            17.9699272815      -12.6407725379       15.9721152146  MEMB      60              0.0000000000
      5600        60  POPC      H3R            16.9970818994      -12.2849460017       15.5705182188  MEMB      60              0.0000000000
      5601        60  POPC      H3S            18.2888981351      -13.5965732745       15.5041158452  MEMB      60              0.0000000000
      5602        60  POPC      C24            18.8055787896      -11.4564121164       15.5287182377  MEMB      60              0.0000000000
      5603        60  POPC      H4R            19.7137017510      -11.6783042809       16.1290495981  MEMB      60              0.0000000000
      5604        60  POPC      H4S            18.4392648923      -10.4215173838       15.6993875441  MEMB      60              0.0000000000
      5605        60  POPC      C25            19.2983033478      -11.5287427014       14.0813294472  MEMB      60              0.0000000000
      5606        60  POPC      H5R            18.5069350473      -11.6354402259       13.3088838954  MEMB      60              0.0000000000
      5607        60  POPC      H5S            19.6910658037      -12.5640066844       13.9902973282  MEMB      60              0.0000000000
      5608        60  POPC      C26            20.2679389905      -10.4719586020       13.7519124630  MEMB      60              0.0000000000
      5609        60  POPC      H6R            21.1993490052      -10.5786780241       14.3480730781  MEMB      60              0.0000000000
      5610        60  POPC      H6S            19.8000575115       -9.4701706329       13.8606719574  MEMB      60              0.0000000000
      5611        60  POPC      C27            20.9041701689      -10.5266579898       12.2683573746  MEMB      60              0.0000000000
      5612        60  POPC      H7R            21.2916343500       -9.5591853426       11.8834036717  MEMB      60              0.0000000000
      5613        60  POPC      H7S            20.1151323932      -10.8642606837       11.5628330938  MEMB      60              0.0000000000
      5614        60  POPC      C28            22.1596928156      -11.3860830209       12.2157594843  MEMB      60              0.0000000000
      5615        60  POPC      H8R            22.0554309701      -12.3169944908       12.8131325106  MEMB      60              0.0000000000
      5616        60  POPC      H8S            22.9639673834      -10.7957909274       12.7046547259  MEMB      60              0.0000000000
      5617        60  POPC      C29            22.6642282549      -11.8592822054       10.8869878958  MEMB      60              0.0000000000
      5618        60  POPC      H91            23.6988293051      -11.6802963483       10.5590178978  MEMB      60              0.0000000000
      5619        60  POPC      C210           21.9895864330      -12.4878249981        9.9213487199  MEMB      60              0.0000000000
      5620        60  POPC      H101           22.4358458989      -12.7004130605        8.9386688271  MEMB      60              0.0000000000
      5621        60  POPC      C211           20.5441130841      -12.8810986848        9.9514976452  MEMB      60              0.0000000000
      5622        60  POPC      H11R           20.1880175272      -12.9626262643       11.0007205856  MEMB      60              0.0000000000
      5623        60  POPC      H11S           20.4744943978      -13.9802348746        9.8052981220  MEMB      60              0.0000000000
      5624        60  POPC      C212           19.4529259525      -12.3260736994        8.9977892209  MEMB      60              0.0000000000
      5625        60  POPC      H12R           19.2229963681      -11.3275846034        9.4272923966  MEMB      60              0.0000000000
      5626        60  POPC      H12S           18.4627267942      -12.8107025897        9.1354908750  MEMB      60              0.0000000000
      5627        60  POPC      C213           19.8505271883      -12.2848245617        7.5513719712  MEMB      60              0.0000000000
      5628        60  POPC      H13R           20.2148183603      -13.2961624770        7.2706422405  MEMB      60              0.0000000000
      5629        60  POPC      H13S           20.7482197268      -11.6408458706        7.6686757456  MEMB      60              0.0000000000
      5630        60  POPC      C214           18.8416845140      -11.7987955144        6.6010049534  MEMB      60              0.0000000000
      5631        60  POPC      H14R           19.0610648495      -10.8969883247        5.9903193638  MEMB      60              0.0000000000
      5632        60  POPC      H14S           17.9431358293      -11.4238869689        7.1361449808  MEMB      60              0.0000000000
      5633        60  POPC      C215           18.3506436759      -12.9134884904        5.5929045027  MEMB      60              0.0000000000
      5634        60  POPC      H15R           18.2625193100      -13.8982486870        6.0996610086  MEMB      60              0.0000000000
      5635        60  POPC      H15S           19.1201433081      -13.0368036615        4.8010813129  MEMB      60              0.0000000000
      5636        60  POPC      C216           16.9169422839      -12.5078977719        5.0730431259  MEMB      60              0.0000000000
      5637        60  POPC      H16R           16.9958899187      -11.4586620349        4.7164028979  MEMB      60              0.0000000000
      5638        60  POPC      H16S           16.0892841593      -12.5879121612        5.8098612006  MEMB      60              0.0000000000
      5639        60  POPC      C217           16.3499027122      -13.3687043230        3.9107154255  MEMB      60              0.0000000000
      5640        60  POPC      H17R           15.3542983692      -12.8953675399        3.7727110285  MEMB      60              0.0000000000
      5641        60  POPC      H17S           16.1796705605      -14.4147707929        4.2440125008  MEMB      60              0.0000000000
      5642        60  POPC      C218           17.2041449684      -13.4313460202        2.6098039988  MEMB      60              0.0000000000
      5643        60  POPC      H18R           16.4594875209      -13.6314464801        1.8099496625  MEMB      60              0.0000000000
      5644        60  POPC      H18S           18.0448819193      -14.1509363435        2.7081502913  MEMB      60              0.0000000000
      5645        60  POPC      H18T           17.7036631315      -12.4983680868        2.2716407882  MEMB      60              0.0000000000
      5646        60  POPC      C33            16.3091540979       -7.1656687700       12.4792033446  MEMB      60              0.0000000000
      5647        60  POPC      H3X            15.9336863410       -6.1797986541       12.8276358038  MEMB      60              0.0000000000
      5648        60  POPC      H3Y            15.4608985500       -7.4266380093       11.8108627925  MEMB      60              0.0000000000
      5649        60  POPC      C34            17.5541960976       -6.7588110817       11.5805057107  MEMB      60              0.0000000000
      5650        60  POPC      H4X            17.7899738190       -7.6371355983       10.9423238254  MEMB      60              0.0000000000
      5651        60  POPC      H4Y            18.4771291450       -6.4200409319       12.0979519077  MEMB      60              0.0000000000
      5652        60  POPC      C35            17.1797805014       -5.7284917726       10.5172080027  MEMB      60              0.0000000000
      5653        60  POPC      H5X            16.5347252009       -4.9418294136       10.9637351658  MEMB      60              0.0000000000
      5654        60  POPC      H5Y            16.5385003620       -6.3069704524        9.8183206979  MEMB      60              0.0000000000
      5655        60  POPC      C36            18.4003535640       -5.2542913716        9.6969555012  MEMB      60              0.0000000000
      5656        60  POPC      H6X            19.1357238788       -6.0396756178        9.4199661571  MEMB      60              0.0000000000
      5657        60  POPC      H6Y            18.8431299696       -4.5492889728       10.4326466823  MEMB      60              0.0000000000
      5658        60  POPC      C37            17.9380884474       -4.4638591163        8.4285522378  MEMB      60              0.0000000000
      5659        60  POPC      H7X            18.8705741982       -4.0703953952        7.9703184954  MEMB      60              0.0000000000
      5660        60  POPC      H7Y            17.4115482152       -3.5709474230        8.8282830228  MEMB      60              0.0000000000
      5661        60  POPC      C38            17.0701562460       -5.2433543537        7.4651695326  MEMB      60              0.0000000000
      5662        60  POPC      H8X            16.7589862955       -4.6743431216        6.5631047888  MEMB      60              0.0000000000
      5663        60  POPC      H8Y            16.0989209740       -5.4731939641        7.9532238293  MEMB      60              0.0000000000
      5664        60  POPC      C39            17.7287569195       -6.5662693585        7.0613594943  MEMB      60              0.0000000000
      5665        60  POPC      H9X            17.0354302635       -7.1974305337        6.4653271038  MEMB      60              0.0000000000
      5666        60  POPC      H9Y            17.8376097889       -7.0665529046        8.0473560790  MEMB      60              0.0000000000
      5667        60  POPC      C310           19.0190509782       -6.4000646177        6.3032261045  MEMB      60              0.0000000000
      5668        60  POPC      H10X           19.5049364441       -7.3980434642        6.3509170100  MEMB      60              0.0000000000
      5669        60  POPC      H10Y           19.6293420330       -5.6297193212        6.8213319844  MEMB      60              0.0000000000
      5670        60  POPC      C311           18.8025243474       -5.9618917395        4.8238462153  MEMB      60              0.0000000000
      5671        60  POPC      H11X           19.6295030410       -5.2997439272        4.4892003262  MEMB      60              0.0000000000
      5672        60  POPC      H11Y           17.9051550814       -5.3362518081        4.6298771729  MEMB      60              0.0000000000
      5673        60  POPC      C312           18.5612597054       -7.0631932740        3.6911050782  MEMB      60              0.0000000000
      5674        60  POPC      H12X           17.5276051717       -7.4680072387        3.7358793552  MEMB      60              0.0000000000
      5675        60  POPC      H12Y           19.1962612580       -7.9673434219        3.8077512525  MEMB      60              0.0000000000
      5676        60  POPC      C313           18.8189446267       -6.4955169342        2.2293436631  MEMB      60              0.0000000000
      5677        60  POPC      H13X           19.7061836629       -5.8291113368        2.1742788022  MEMB      60              0.0000000000
      5678        60  POPC      H13Y           17.8627735763       -5.9901499893        1.9750572576  MEMB      60              0.0000000000
      5679        60  POPC      C314           18.9678677534       -7.6323741198        1.1915131682  MEMB      60              0.0000000000
      5680        60  POPC      H14X           19.8733698299       -8.2416859767        1.3991811193  MEMB      60              0.0000000000
      5681        60  POPC      H14Y           19.1325628310       -7.2171852790        0.1742545157  MEMB      60              0.0000000000
      5682        60  POPC      C315           17.7807766280       -8.5743057307        1.1724477025  MEMB      60              0.0000000000
      5683        60  POPC      H15X           17.3294811677       -8.8378483879        2.1528554060  MEMB      60              0.0000000000
      5684        60  POPC      H15Y           18.2581429780       -9.4683962440        0.7174266456  MEMB      60              0.0000000000
      5685        60  POPC      C316           16.5948185444       -8.1026647787        0.2704067942  MEMB      60              0.0000000000
      5686        60  POPC      H16X           15.7575417127       -8.8328476436        0.2593948848  MEMB      60              0.0000000000
      5687        60  POPC      H16Y           16.9407406844       -7.9605556607       -0.7757599207  MEMB      60              0.0000000000
      5688        60  POPC      H16Z           16.2660100159       -7.1528624056        0.7437800761  MEMB      60              0.0000000000
      5689        61  POPC      N             -39.8064995027       22.3892814009       19.9070928911  MEMB      61              0.0000000000
      5690        61  POPC      C12           -39.6768526160       20.9196364690       20.3735771716  MEMB      61              0.0000000000
      5691        61  POPC      H12A          -40.4593383872       20.2989806873       19.9625999005  MEMB      61              0.0000000000
      5692        61  POPC      H12B          -39.8267154999       21.0355681620       21.4368273078  MEMB      61              0.0000000000
      5693        61  POPC      C13           -40.4526149607       23.1906421185       20.9260775815  MEMB      61              0.0000000000
      5694        61  POPC      H13A          -39.6912701965       23.4364968331       21.6515496402  MEMB      61              0.0000000000
      5695        61  POPC      H13B          -40.7757920433       24.0970675886       20.4358235181  MEMB      61              0.0000000000
      5696        61  POPC      H13C          -41.3035367360       22.7063084583       21.3818768574  MEMB      61              0.0000000000
      5697        61  POPC      C14           -38.4383519843       22.9620579314       19.7966038122  MEMB      61              0.0000000000
      5698        61  POPC      H14A          -37.9355064826       22.7413872590       20.7265774302  MEMB      61              0.0000000000
      5699        61  POPC      H14B          -37.8675481034       22.5249132182       18.9906959822  MEMB      61              0.0000000000
      5700        61  POPC      H14C          -38.4523562131       24.0373689696       19.6970534029  MEMB      61              0.0000000000
      5701        61  POPC      C15           -40.4910063945       22.4355330890       18.5535794223  MEMB      61              0.0000000000
      5702        61  POPC      H15A          -41.5209776443       22.1203757513       18.6325418701  MEMB      61              0.0000000000
      5703        61  POPC      H15B          -39.9648424936       21.8810619772       17.7906159085  MEMB      61              0.0000000000
      5704        61  POPC      H15C          -40.4432160312       23.4593045885       18.2129798299  MEMB      61              0.0000000000
      5705        61  POPC      C11           -38.3621641678       20.1957019174       20.1279678629  MEMB      61              0.0000000000
      5706        61  POPC      H11A          -38.6026112843       19.1570848530       20.4406668788  MEMB      61              0.0000000000
      5707        61  POPC      H11B          -37.5117001601       20.5436820020       20.7524210197  MEMB      61              0.0000000000
      5708        61  POPC      P             -37.6769135007       19.1397784664       17.8436753078  MEMB      61              0.0000000000
      5709        61  POPC      O13           -38.2267334937       17.9553155652       18.4542023842  MEMB      61              0.0000000000
      5710        61  POPC      O14           -36.2054285147       19.1031187861       17.6729327402  MEMB      61              0.0000000000
      5711        61  POPC      O12           -37.9933259678       20.3634324803       18.7788051342  MEMB      61              0.0000000000
      5712        61  POPC      O11           -38.5584486944       19.4040335806       16.5654856939  MEMB      61              0.0000000000
      5713        61  POPC      C1            -38.5317692706       20.6158536955       15.7546141735  MEMB      61              0.0000000000
      5714        61  POPC      HA            -37.5540431368       21.1419025670       15.7951754274  MEMB      61              0.0000000000
      5715        61  POPC      HB            -39.3161076914       21.3382006152       16.0666226842  MEMB      61              0.0000000000
      5716        61  POPC      C2            -38.7539735011       20.1680628708       14.3190357794  MEMB      61              0.0000000000
      5717        61  POPC      HS            -38.9678805074       21.1017422282       13.7561789118  MEMB      61              0.0000000000
      5718        61  POPC      O21           -39.8340132511       19.2460494861       14.2028588779  MEMB      61              0.0000000000
      5719        61  POPC      C21           -40.4135171619       19.1814441918       12.9579411188  MEMB      61              0.0000000000
      5720        61  POPC      O22           -40.1919711432       19.9564754684       12.0611711943  MEMB      61              0.0000000000
      5721        61  POPC      C22           -41.4290703798       18.1804799675       12.9231906268  MEMB      61              0.0000000000
      5722        61  POPC      H2R           -42.3863198145       18.6663154440       13.2094752865  MEMB      61              0.0000000000
      5723        61  POPC      H2S           -41.3639930288       17.3329111395       13.6385321842  MEMB      61              0.0000000000
      5724        61  POPC      C3            -37.4240024772       19.5256229788       13.7487654726  MEMB      61              0.0000000000
      5725        61  POPC      HX            -37.3520917536       18.5422762236       14.2607992305  MEMB      61              0.0000000000
      5726        61  POPC      HY            -36.6165516649       20.2333275817       14.0342443525  MEMB      61              0.0000000000
      5727        61  POPC      O31           -37.6039938171       19.2859481876       12.3584583869  MEMB      61              0.0000000000
      5728        61  POPC      C31           -36.4765893136       18.8536004750       11.8368830167  MEMB      61              0.0000000000
      5729        61  POPC      O32           -35.3688726396       18.9777051190       12.2464573158  MEMB      61              0.0000000000
      5730        61  POPC      C32           -36.7814234030       18.3066875627       10.4043223985  MEMB      61              0.0000000000
      5731        61  POPC      H2X           -37.6424150808       18.8023845193        9.9070310522  MEMB      61              0.0000000000
      5732        61  POPC      H2Y           -36.8250291468       17.2007724136       10.3075167230  MEMB      61              0.0000000000
      5733        61  POPC      C23           -41.8417846525       17.7842524904       11.4837701626  MEMB      61              0.0000000000
      5734        61  POPC      H3R           -42.1503526306       18.7117301911       10.9556680599  MEMB      61              0.0000000000
      5735        61  POPC      H3S           -42.7404087004       17.1482662335       11.3343799323  MEMB      61              0.0000000000
      5736        61  POPC      C24           -40.6947337716       17.0875387495       10.6731923329  MEMB      61              0.0000000000
      5737        61  POPC      H4R           -40.2394948472       16.2181520104       11.1940041551  MEMB      61              0.0000000000
      5738        61  POPC      H4S           -40.0022837695       17.9397221810       10.5040263195  MEMB      61              0.0000000000
      5739        61  POPC      C25           -41.0957110805       16.7182610281        9.2907357114  MEMB      61              0.0000000000
      5740        61  POPC      H5R           -41.5785178985       17.5436522579        8.7250962792  MEMB      61              0.0000000000
      5741        61  POPC      H5S           -41.8781665842       15.9385743526        9.4097846441  MEMB      61              0.0000000000
      5742        61  POPC      C26           -39.9129192193       16.1228939596        8.4147946721  MEMB      61              0.0000000000
      5743        61  POPC      H6R           -39.6909767905       15.1398024394        8.8823337456  MEMB      61              0.0000000000
      5744        61  POPC      H6S           -39.1576067491       16.9086354216        8.6302810083  MEMB      61              0.0000000000
      5745        61  POPC      C27           -40.2769369696       15.9077379377        6.9499882434  MEMB      61              0.0000000000
      5746        61  POPC      H7R           -41.2245334668       15.3277546525        6.9511438690  MEMB      61              0.0000000000
      5747        61  POPC      H7S           -39.3797962802       15.4063480008        6.5280076463  MEMB      61              0.0000000000
      5748        61  POPC      C28           -40.6453150634       17.1402457685        6.1318270535  MEMB      61              0.0000000000
      5749        61  POPC      H8R           -41.6201005374       17.5562635743        6.4650587054  MEMB      61              0.0000000000
      5750        61  POPC      H8S           -40.6989709545       16.7652561713        5.0874013328  MEMB      61              0.0000000000
      5751        61  POPC      C29           -39.5372389771       18.1291151911        5.9413340234  MEMB      61              0.0000000000
      5752        61  POPC      H91           -38.6299507732       17.6720435777        5.5195363947  MEMB      61              0.0000000000
      5753        61  POPC      C210          -39.6267118554       19.4474413723        6.2601521586  MEMB      61              0.0000000000
      5754        61  POPC      H101          -38.7483746908       20.0992232296        6.1430876029  MEMB      61              0.0000000000
      5755        61  POPC      C211          -40.7998468534       20.2103865176        6.8662377278  MEMB      61              0.0000000000
      5756        61  POPC      H11R          -40.8981114704       19.8337134456        7.9068054927  MEMB      61              0.0000000000
      5757        61  POPC      H11S          -41.7091073760       20.2042881771        6.2278574382  MEMB      61              0.0000000000
      5758        61  POPC      C212          -40.5372742983       21.7247249309        6.8786038283  MEMB      61              0.0000000000
      5759        61  POPC      H12R          -39.5265905647       22.0563002002        7.1993798235  MEMB      61              0.0000000000
      5760        61  POPC      H12S          -41.2383127635       22.1651021595        7.6195048383  MEMB      61              0.0000000000
      5761        61  POPC      C213          -40.9572145697       22.5623077554        5.6180384587  MEMB      61              0.0000000000
      5762        61  POPC      H13R          -41.1556369198       23.6003622729        5.9606641347  MEMB      61              0.0000000000
      5763        61  POPC      H13S          -41.9520659861       22.2111146634        5.2698211132  MEMB      61              0.0000000000
      5764        61  POPC      C214          -39.9423318539       22.4964177347        4.3972144201  MEMB      61              0.0000000000
      5765        61  POPC      H14R          -40.3894464739       23.1228274227        3.5959522112  MEMB      61              0.0000000000
      5766        61  POPC      H14S          -39.6348859621       21.5340894493        3.9349133794  MEMB      61              0.0000000000
      5767        61  POPC      C215          -38.5420188494       22.9907259654        4.7484577778  MEMB      61              0.0000000000
      5768        61  POPC      H15R          -38.0425676035       22.1819089813        5.3235099053  MEMB      61              0.0000000000
      5769        61  POPC      H15S          -38.5768213162       23.9798199489        5.2532383407  MEMB      61              0.0000000000
      5770        61  POPC      C216          -37.7722411368       23.3316441837        3.4868884196  MEMB      61              0.0000000000
      5771        61  POPC      H16R          -37.5289249344       22.4064902175        2.9219038760  MEMB      61              0.0000000000
      5772        61  POPC      H16S          -36.8254444596       23.7264886005        3.9134972673  MEMB      61              0.0000000000
      5773        61  POPC      C217          -38.3589510945       24.4623619489        2.7066340736  MEMB      61              0.0000000000
      5774        61  POPC      H17R          -37.5519194522       25.2163313740        2.5860060260  MEMB      61              0.0000000000
      5775        61  POPC      H17S          -39.1476378219       24.9433197124        3.3238639945  MEMB      61              0.0000000000
      5776        61  POPC      C218          -38.9252368311       23.9555680448        1.3580931533  MEMB      61              0.0000000000
      5777        61  POPC      H18R          -39.1247790562       22.8660842614        1.4448609615  MEMB      61              0.0000000000
      5778        61  POPC      H18S          -38.1756727963       24.0369568200        0.5420963032  MEMB      61              0.0000000000
      5779        61  POPC      H18T          -39.8388193042       24.4766982174        1.0001661081  MEMB      61              0.0000000000
      5780        61  POPC      C33           -35.6097802572       18.7979804925        9.5368352512  MEMB      61              0.0000000000
      5781        61  POPC      H3X           -34.8023214541       18.0977944893        9.8402658933  MEMB      61              0.0000000000
      5782        61  POPC      H3Y           -35.2182860737       19.8261557767        9.6914598031  MEMB      61              0.0000000000
      5783        61  POPC      C34           -35.9264732816       18.5761761256        8.0560563208  MEMB      61              0.0000000000
      5784        61  POPC      H4X           -36.9086232152       18.9488054730        7.6943243976  MEMB      61              0.0000000000
      5785        61  POPC      H4Y           -35.9261164012       17.4725523800        7.9282455769  MEMB      61              0.0000000000
      5786        61  POPC      C35           -34.8532804156       19.1518858787        7.1190926681  MEMB      61              0.0000000000
      5787        61  POPC      H5X           -33.9398095360       18.6034522732        7.4339136518  MEMB      61              0.0000000000
      5788        61  POPC      H5Y           -34.8262791287       20.2369841800        7.3560606102  MEMB      61              0.0000000000
      5789        61  POPC      C36           -35.3212760626       18.9365779277        5.6734630544  MEMB      61              0.0000000000
      5790        61  POPC      H6X           -34.5214599345       19.4289013438        5.0799713731  MEMB      61              0.0000000000
      5791        61  POPC      H6Y           -36.2439383636       19.5397147009        5.5347500047  MEMB      61              0.0000000000
      5792        61  POPC      C37           -35.5630303878       17.4658984330        5.2087907318  MEMB      61              0.0000000000
      5793        61  POPC      H7X           -36.4197713474       17.1539542667        5.8436188369  MEMB      61              0.0000000000
      5794        61  POPC      H7Y           -34.7463224488       16.7959511048        5.5530006655  MEMB      61              0.0000000000
      5795        61  POPC      C38           -36.0322246286       17.2835872271        3.7905566476  MEMB      61              0.0000000000
      5796        61  POPC      H8X           -36.9208566421       17.9439569260        3.6980046617  MEMB      61              0.0000000000
      5797        61  POPC      H8Y           -36.3688134192       16.2338280337        3.6525915375  MEMB      61              0.0000000000
      5798        61  POPC      C39           -34.9147394525       17.7174508950        2.7087202694  MEMB      61              0.0000000000
      5799        61  POPC      H9X           -34.0665053112       17.0209481356        2.5363731762  MEMB      61              0.0000000000
      5800        61  POPC      H9Y           -34.5244121281       18.7138454762        3.0073220872  MEMB      61              0.0000000000
      5801        61  POPC      C310          -35.4570467178       17.8634645486        1.2424531190  MEMB      61              0.0000000000
      5802        61  POPC      H10X          -35.7595616063       16.8356090752        0.9486530439  MEMB      61              0.0000000000
      5803        61  POPC      H10Y          -34.6101024316       18.1530584649        0.5843191220  MEMB      61              0.0000000000
      5804        61  POPC      C311          -36.6402205508       18.8366263076        1.0458040620  MEMB      61              0.0000000000
      5805        61  POPC      H11X          -36.6163630781       19.7046039053        1.7388902285  MEMB      61              0.0000000000
      5806        61  POPC      H11Y          -37.5915746365       18.2920504857        1.2265901524  MEMB      61              0.0000000000
      5807        61  POPC      C312          -36.6619740148       19.3672336510       -0.3685826374  MEMB      61              0.0000000000
      5808        61  POPC      H12X          -36.5919326273       18.7412614760       -1.2837734481  MEMB      61              0.0000000000
      5809        61  POPC      H12Y          -35.8003400501       20.0678298650       -0.4013381930  MEMB      61              0.0000000000
      5810        61  POPC      C313          -37.9457814363       20.1765621391       -0.7618158665  MEMB      61              0.0000000000
      5811        61  POPC      H13X          -37.7613581611       20.4167703464       -1.8307465798  MEMB      61              0.0000000000
      5812        61  POPC      H13Y          -37.9585067640       21.1340072901       -0.1983833999  MEMB      61              0.0000000000
      5813        61  POPC      C314          -39.2726874740       19.5459091167       -0.5819922102  MEMB      61              0.0000000000
      5814        61  POPC      H14X          -39.5951539643       19.4174457804        0.4733900309  MEMB      61              0.0000000000
      5815        61  POPC      H14Y          -39.1458161038       18.4980500947       -0.9287138344  MEMB      61              0.0000000000
      5816        61  POPC      C315          -40.4111361841       20.2650711705       -1.2817565898  MEMB      61              0.0000000000
      5817        61  POPC      H15X          -40.2859066684       19.9518915544       -2.3403209965  MEMB      61              0.0000000000
      5818        61  POPC      H15Y          -40.2875785848       21.3680733849       -1.2323527376  MEMB      61              0.0000000000
      5819        61  POPC      C316          -41.7898194951       19.9272233010       -0.7572852665  MEMB      61              0.0000000000
      5820        61  POPC      H16X          -41.9310666772       18.8269314631       -0.8183396497  MEMB      61              0.0000000000
      5821        61  POPC      H16Y          -42.5845426069       20.3994657781       -1.3735008543  MEMB      61              0.0000000000
      5822        61  POPC      H16Z          -41.8724816948       20.3246362785        0.2769062932  MEMB      61              0.0000000000
      5823        62  POPC      N             -29.2237528501        2.3678350184       19.4657237857  MEMB      62              0.0000000000
      5824        62  POPC      C12           -28.5800624014        0.9734843866       19.7767304501  MEMB      62              0.0000000000
      5825        62  POPC      H12A          -27.8511888712        1.2544478423       20.5225206865  MEMB      62              0.0000000000
      5826        62  POPC      H12B          -28.0779420282        0.6596670081       18.8735174152  MEMB      62              0.0000000000
      5827        62  POPC      C13           -30.0718529930        2.2559473439       18.2432436810  MEMB      62              0.0000000000
      5828        62  POPC      H13A          -29.4424825627        2.0058206530       17.4019770929  MEMB      62              0.0000000000
      5829        62  POPC      H13B          -30.8500395180        1.5191748049       18.3773780764  MEMB      62              0.0000000000
      5830        62  POPC      H13C          -30.6462806515        3.1649745570       18.1427330200  MEMB      62              0.0000000000
      5831        62  POPC      C14           -30.0285078502        2.6488379428       20.6637061149  MEMB      62              0.0000000000
      5832        62  POPC      H14A          -29.4889543507        2.8152942901       21.5843442890  MEMB      62              0.0000000000
      5833        62  POPC      H14B          -30.5904649431        3.5403088487       20.4273088115  MEMB      62              0.0000000000
      5834        62  POPC      H14C          -30.6796933144        1.8258220264       20.9186614849  MEMB      62              0.0000000000
      5835        62  POPC      C15           -28.2349104781        3.4584809552       19.2859971314  MEMB      62              0.0000000000
      5836        62  POPC      H15A          -28.6206650948        4.4669929382       19.2637147212  MEMB      62              0.0000000000
      5837        62  POPC      H15B          -27.6680889689        3.3452922443       18.3736914310  MEMB      62              0.0000000000
      5838        62  POPC      H15C          -27.4630218838        3.4413815776       20.0411764644  MEMB      62              0.0000000000
      5839        62  POPC      C11           -29.4231423627       -0.1676296064       20.2477462353  MEMB      62              0.0000000000
      5840        62  POPC      H11A          -29.7910175137        0.0691608517       21.2689803417  MEMB      62              0.0000000000
      5841        62  POPC      H11B          -28.9101349862       -1.1490879540       20.3365375277  MEMB      62              0.0000000000
      5842        62  POPC      P             -30.6403938441       -1.4239355900       18.2609195762  MEMB      62              0.0000000000
      5843        62  POPC      O13           -31.7681905289       -1.1322738093       17.3582306874  MEMB      62              0.0000000000
      5844        62  POPC      O14           -30.5964545014       -2.7310445888       18.8278413146  MEMB      62              0.0000000000
      5845        62  POPC      O12           -30.5938922471       -0.3874890300       19.4503353269  MEMB      62              0.0000000000
      5846        62  POPC      O11           -29.3463280267       -1.1678262904       17.4195256916  MEMB      62              0.0000000000
      5847        62  POPC      C1            -28.0868542831       -1.8874109111       17.6710889319  MEMB      62              0.0000000000
      5848        62  POPC      HA            -28.2409376965       -2.9871967163       17.6386793674  MEMB      62              0.0000000000
      5849        62  POPC      HB            -27.7032466227       -1.6196121835       18.6787843487  MEMB      62              0.0000000000
      5850        62  POPC      C2            -26.9856389879       -1.3599904863       16.6687932928  MEMB      62              0.0000000000
      5851        62  POPC      HS            -26.0849434223       -1.4125362096       17.3171042882  MEMB      62              0.0000000000
      5852        62  POPC      O21           -27.3280733654       -0.0422044240       16.3840511164  MEMB      62              0.0000000000
      5853        62  POPC      C21           -26.5493629157        0.7939812100       15.7114565311  MEMB      62              0.0000000000
      5854        62  POPC      O22           -25.3262354178        0.8343806539       15.6715701624  MEMB      62              0.0000000000
      5855        62  POPC      C22           -27.4223430086        1.9974506105       15.1264479364  MEMB      62              0.0000000000
      5856        62  POPC      H2R           -27.0003531127        2.9791195845       15.4307035000  MEMB      62              0.0000000000
      5857        62  POPC      H2S           -28.5101392603        1.9790830134       15.3515762593  MEMB      62              0.0000000000
      5858        62  POPC      C3            -26.8174067263       -2.1938329600       15.3489883978  MEMB      62              0.0000000000
      5859        62  POPC      HX            -26.6656800781       -3.2602268133       15.6212092359  MEMB      62              0.0000000000
      5860        62  POPC      HY            -25.8914785262       -1.9289075388       14.7950999947  MEMB      62              0.0000000000
      5861        62  POPC      O31           -27.9593301312       -1.9440780463       14.4882353952  MEMB      62              0.0000000000
      5862        62  POPC      C31           -28.8876955905       -2.8958018798       14.3688943830  MEMB      62              0.0000000000
      5863        62  POPC      O32           -28.8408605783       -4.0032691740       14.8110800735  MEMB      62              0.0000000000
      5864        62  POPC      C32           -29.9269886923       -2.3569511796       13.4296073719  MEMB      62              0.0000000000
      5865        62  POPC      H2X           -29.9815495550       -1.2731070251       13.6675693811  MEMB      62              0.0000000000
      5866        62  POPC      H2Y           -30.8659465639       -2.8806826696       13.7095800112  MEMB      62              0.0000000000
      5867        62  POPC      C23           -27.3915566670        1.8432413379       13.5975959716  MEMB      62              0.0000000000
      5868        62  POPC      H3R           -27.7717172979        0.8432356593       13.2979501982  MEMB      62              0.0000000000
      5869        62  POPC      H3S           -26.3626357781        1.9289399526       13.1873546487  MEMB      62              0.0000000000
      5870        62  POPC      C24           -28.3818599483        2.8409630862       12.9431978010  MEMB      62              0.0000000000
      5871        62  POPC      H4R           -28.3771082045        3.6664964548       13.6866981725  MEMB      62              0.0000000000
      5872        62  POPC      H4S           -29.4203102531        2.4481101576       12.9833029851  MEMB      62              0.0000000000
      5873        62  POPC      C25           -27.9055188756        3.1982267439       11.4810951395  MEMB      62              0.0000000000
      5874        62  POPC      H5R           -26.8520197291        3.5447796043       11.4150506868  MEMB      62              0.0000000000
      5875        62  POPC      H5S           -28.5002344581        4.0887528403       11.1851261746  MEMB      62              0.0000000000
      5876        62  POPC      C26           -28.1652706525        2.1384093081       10.4263976735  MEMB      62              0.0000000000
      5877        62  POPC      H6R           -29.2508686303        1.9112358368       10.4911302183  MEMB      62              0.0000000000
      5878        62  POPC      H6S           -27.6274525326        1.1891226150       10.6359869833  MEMB      62              0.0000000000
      5879        62  POPC      C27           -27.6450864345        2.6150181912        9.0357311144  MEMB      62              0.0000000000
      5880        62  POPC      H7R           -27.6729382383        3.7256630849        9.0321030872  MEMB      62              0.0000000000
      5881        62  POPC      H7S           -28.2930131324        2.3244068793        8.1812969171  MEMB      62              0.0000000000
      5882        62  POPC      C28           -26.2560347938        2.1526407726        8.7948341557  MEMB      62              0.0000000000
      5883        62  POPC      H8R           -25.7313717840        2.2339477948        9.7707643043  MEMB      62              0.0000000000
      5884        62  POPC      H8S           -25.6970671907        2.9057046216        8.1992071683  MEMB      62              0.0000000000
      5885        62  POPC      C29           -26.0501743700        0.7995911083        8.1546927430  MEMB      62              0.0000000000
      5886        62  POPC      H91           -26.0179991646       -0.0033754348        8.9058318536  MEMB      62              0.0000000000
      5887        62  POPC      C210          -25.9345724928        0.5584647011        6.8689279165  MEMB      62              0.0000000000
      5888        62  POPC      H101          -25.6159085646       -0.3846328149        6.4009322041  MEMB      62              0.0000000000
      5889        62  POPC      C211          -25.9489965120        1.6467424158        5.8468476679  MEMB      62              0.0000000000
      5890        62  POPC      H11R          -25.3903017985        1.2864138337        4.9567097840  MEMB      62              0.0000000000
      5891        62  POPC      H11S          -25.2737025124        2.4616770962        6.1847532667  MEMB      62              0.0000000000
      5892        62  POPC      C212          -27.1837776323        2.2556597317        5.2022877366  MEMB      62              0.0000000000
      5893        62  POPC      H12R          -27.7979053869        2.8050366577        5.9475080193  MEMB      62              0.0000000000
      5894        62  POPC      H12S          -27.7307385950        1.4231620144        4.7102493051  MEMB      62              0.0000000000
      5895        62  POPC      C213          -26.8078038272        3.2473030859        4.1088166863  MEMB      62              0.0000000000
      5896        62  POPC      H13R          -26.3750612742        2.6688192378        3.2647727356  MEMB      62              0.0000000000
      5897        62  POPC      H13S          -25.9979207952        3.9170213382        4.4692168864  MEMB      62              0.0000000000
      5898        62  POPC      C214          -27.9248986772        4.1208147461        3.4352092474  MEMB      62              0.0000000000
      5899        62  POPC      H14R          -27.5756681951        4.5625516733        2.4774894374  MEMB      62              0.0000000000
      5900        62  POPC      H14S          -28.0962832564        5.0273175739        4.0542420134  MEMB      62              0.0000000000
      5901        62  POPC      C215          -29.2556033407        3.4162233472        3.4210481470  MEMB      62              0.0000000000
      5902        62  POPC      H15R          -29.4989919705        3.2796169532        4.4964194281  MEMB      62              0.0000000000
      5903        62  POPC      H15S          -29.2439858878        2.3866160317        3.0038018755  MEMB      62              0.0000000000
      5904        62  POPC      C216          -30.2985063978        4.2184315742        2.6605744042  MEMB      62              0.0000000000
      5905        62  POPC      H16R          -29.9785764191        5.2822818931        2.6742969033  MEMB      62              0.0000000000
      5906        62  POPC      H16S          -31.3013011819        4.1392290168        3.1322214391  MEMB      62              0.0000000000
      5907        62  POPC      C217          -30.3988190356        3.7719479032        1.1603999199  MEMB      62              0.0000000000
      5908        62  POPC      H17R          -31.1455563460        2.9511392416        1.1058333514  MEMB      62              0.0000000000
      5909        62  POPC      H17S          -29.4023763890        3.4363267122        0.8015381581  MEMB      62              0.0000000000
      5910        62  POPC      C218          -30.8039186824        4.9970569758        0.3729648257  MEMB      62              0.0000000000
      5911        62  POPC      H18R          -30.8694166620        4.9028986361       -0.7320980554  MEMB      62              0.0000000000
      5912        62  POPC      H18S          -30.2639053018        5.9513626524        0.5518705288  MEMB      62              0.0000000000
      5913        62  POPC      H18T          -31.8323871157        5.2643310403        0.6972147044  MEMB      62              0.0000000000
      5914        62  POPC      C33           -29.6789026953       -2.6367550975       11.8727411479  MEMB      62              0.0000000000
      5915        62  POPC      H3X           -28.6478347020       -2.2589020282       11.7040791263  MEMB      62              0.0000000000
      5916        62  POPC      H3Y           -30.3348438960       -1.8915593736       11.3739973171  MEMB      62              0.0000000000
      5917        62  POPC      C34           -29.8263161888       -4.1194815956       11.4569790108  MEMB      62              0.0000000000
      5918        62  POPC      H4X           -30.8254112928       -4.4443963995       11.8183101552  MEMB      62              0.0000000000
      5919        62  POPC      H4Y           -29.1293401324       -4.6871175042       12.1099218118  MEMB      62              0.0000000000
      5920        62  POPC      C35           -29.6076446456       -4.4909368934        9.9698068505  MEMB      62              0.0000000000
      5921        62  POPC      H5X           -30.0496008996       -5.4923832007        9.7798045726  MEMB      62              0.0000000000
      5922        62  POPC      H5Y           -28.5171811541       -4.6969532778        9.9171964939  MEMB      62              0.0000000000
      5923        62  POPC      C36           -30.3530452026       -3.5486475484        8.9661938823  MEMB      62              0.0000000000
      5924        62  POPC      H6X           -29.9366525093       -2.5458798054        9.2015553846  MEMB      62              0.0000000000
      5925        62  POPC      H6Y           -31.4135715280       -3.5675133258        9.2967212045  MEMB      62              0.0000000000
      5926        62  POPC      C37           -30.3106707489       -3.8956269274        7.4849325457  MEMB      62              0.0000000000
      5927        62  POPC      H7X           -31.1674448125       -3.3386288589        7.0490281631  MEMB      62              0.0000000000
      5928        62  POPC      H7Y           -30.4357586890       -4.9897273149        7.3379008771  MEMB      62              0.0000000000
      5929        62  POPC      C38           -29.0192284530       -3.4255249214        6.7336863791  MEMB      62              0.0000000000
      5930        62  POPC      H8X           -28.8167856260       -4.1646217128        5.9292774513  MEMB      62              0.0000000000
      5931        62  POPC      H8Y           -28.1605743988       -3.3429912419        7.4338448048  MEMB      62              0.0000000000
      5932        62  POPC      C39           -29.0902735008       -1.9964068928        6.0978091086  MEMB      62              0.0000000000
      5933        62  POPC      H9X           -28.0096157884       -1.8366655205        5.8953669250  MEMB      62              0.0000000000
      5934        62  POPC      H9Y           -29.3802515514       -1.2621270231        6.8795169302  MEMB      62              0.0000000000
      5935        62  POPC      C310          -29.9635086393       -1.8251432569        4.8869485038  MEMB      62              0.0000000000
      5936        62  POPC      H10X          -30.1183682886       -0.7346600922        4.7413959393  MEMB      62              0.0000000000
      5937        62  POPC      H10Y          -30.9258432752       -2.3469122511        5.0766591499  MEMB      62              0.0000000000
      5938        62  POPC      C311          -29.3296482967       -2.3299122868        3.5544594952  MEMB      62              0.0000000000
      5939        62  POPC      H11X          -28.9053915711       -3.3415058184        3.7305431306  MEMB      62              0.0000000000
      5940        62  POPC      H11Y          -28.4822384992       -1.7101506297        3.1909857182  MEMB      62              0.0000000000
      5941        62  POPC      C312          -30.3941960628       -2.4831746860        2.4912563098  MEMB      62              0.0000000000
      5942        62  POPC      H12X          -31.0425756647       -3.2934143283        2.8880382577  MEMB      62              0.0000000000
      5943        62  POPC      H12Y          -29.8370184616       -3.0316539151        1.7019240574  MEMB      62              0.0000000000
      5944        62  POPC      C313          -31.0183086151       -1.2327789009        1.8645056227  MEMB      62              0.0000000000
      5945        62  POPC      H13X          -31.7590680052       -0.7428904931        2.5320427154  MEMB      62              0.0000000000
      5946        62  POPC      H13Y          -31.6455672847       -1.6047132671        1.0263325543  MEMB      62              0.0000000000
      5947        62  POPC      C314          -30.0581205378       -0.1343168169        1.3151432005  MEMB      62              0.0000000000
      5948        62  POPC      H14X          -29.4752452134        0.2989779392        2.1558777637  MEMB      62              0.0000000000
      5949        62  POPC      H14Y          -30.6337197837        0.5838631478        0.6928707146  MEMB      62              0.0000000000
      5950        62  POPC      C315          -29.0661568731       -0.8634998064        0.3117833442  MEMB      62              0.0000000000
      5951        62  POPC      H15X          -29.6075430962       -1.3126793797       -0.5481351046  MEMB      62              0.0000000000
      5952        62  POPC      H15Y          -28.5314784753       -1.7431763942        0.7296473753  MEMB      62              0.0000000000
      5953        62  POPC      C316          -27.9787097421        0.1143888165       -0.2468012171  MEMB      62              0.0000000000
      5954        62  POPC      H16X          -28.4917042033        0.9051221436       -0.8349325108  MEMB      62              0.0000000000
      5955        62  POPC      H16Y          -27.3500735771       -0.5044238122       -0.9222337875  MEMB      62              0.0000000000
      5956        62  POPC      H16Z          -27.4289311635        0.5279581000        0.6255658342  MEMB      62              0.0000000000
      5957        63  POPC      N              24.6948032151       -4.0403128372       19.5329680109  MEMB      63              0.0000000000
      5958        63  POPC      C12            25.6520569429       -4.8913762790       18.6219085686  MEMB      63              0.0000000000
      5959        63  POPC      H12A           25.1325379761       -4.9669764449       17.6780946923  MEMB      63              0.0000000000
      5960        63  POPC      H12B           25.8141221841       -5.8400834425       19.1118981134  MEMB      63              0.0000000000
      5961        63  POPC      C13            25.3573744977       -3.5975238649       20.8230189947  MEMB      63              0.0000000000
      5962        63  POPC      H13A           24.7603751189       -3.0065952590       21.5018377396  MEMB      63              0.0000000000
      5963        63  POPC      H13B           25.6590401300       -4.5141934856       21.3079051338  MEMB      63              0.0000000000
      5964        63  POPC      H13C           26.2218073412       -3.0336929365       20.5048197420  MEMB      63              0.0000000000
      5965        63  POPC      C14            24.1973446581       -2.8117508514       18.7539299834  MEMB      63              0.0000000000
      5966        63  POPC      H14A           25.0092907729       -2.1693550213       18.4465682995  MEMB      63              0.0000000000
      5967        63  POPC      H14B           23.7623066952       -3.1078245402       17.8108062042  MEMB      63              0.0000000000
      5968        63  POPC      H14C           23.4030920247       -2.3036775870       19.2806405050  MEMB      63              0.0000000000
      5969        63  POPC      C15            23.4776097729       -4.8667560774       19.9468482653  MEMB      63              0.0000000000
      5970        63  POPC      H15A           22.7486370005       -4.2851641629       20.4915953919  MEMB      63              0.0000000000
      5971        63  POPC      H15B           23.7087253719       -5.7682353392       20.4948636205  MEMB      63              0.0000000000
      5972        63  POPC      H15C           22.8985035017       -5.0774899818       19.0599282222  MEMB      63              0.0000000000
      5973        63  POPC      C11            26.8585324187       -4.1506971409       18.1042709339  MEMB      63              0.0000000000
      5974        63  POPC      H11A           26.6134711356       -3.2129464786       17.5612334317  MEMB      63              0.0000000000
      5975        63  POPC      H11B           27.4309379230       -4.6791673114       17.3121899975  MEMB      63              0.0000000000
      5976        63  POPC      P              29.2571702828       -3.3303283063       18.6719683868  MEMB      63              0.0000000000
      5977        63  POPC      O13            29.8252418335       -4.2314085584       17.6583646507  MEMB      63              0.0000000000
      5978        63  POPC      O14            29.9772908699       -3.1098964767       19.9311026753  MEMB      63              0.0000000000
      5979        63  POPC      O12            27.7857004065       -3.8324181015       19.1168605157  MEMB      63              0.0000000000
      5980        63  POPC      O11            29.0099778912       -2.0259936219       17.8387590190  MEMB      63              0.0000000000
      5981        63  POPC      C1             29.1966773023       -0.7583289345       18.3796108672  MEMB      63              0.0000000000
      5982        63  POPC      HA             30.2087206818       -0.7099432839       18.8354046833  MEMB      63              0.0000000000
      5983        63  POPC      HB             28.4278546966       -0.6071440615       19.1672503609  MEMB      63              0.0000000000
      5984        63  POPC      C2             28.9974279326        0.2649381010       17.2825850035  MEMB      63              0.0000000000
      5985        63  POPC      HS             28.6692185874        1.1915520584       17.8002588722  MEMB      63              0.0000000000
      5986        63  POPC      O21            28.0293272553       -0.1055026547       16.2875885159  MEMB      63              0.0000000000
      5987        63  POPC      C21            26.8037463336        0.1683856516       16.6191903891  MEMB      63              0.0000000000
      5988        63  POPC      O22            26.3804263399        0.7937440797       17.6311513366  MEMB      63              0.0000000000
      5989        63  POPC      C22            25.8525184330       -0.2005289467       15.5013650207  MEMB      63              0.0000000000
      5990        63  POPC      H2R            25.1705109122        0.6559390694       15.3125553513  MEMB      63              0.0000000000
      5991        63  POPC      H2S            25.1932021669       -1.0564296760       15.7603183581  MEMB      63              0.0000000000
      5992        63  POPC      C3             30.3192450529        0.5443044495       16.6238580080  MEMB      63              0.0000000000
      5993        63  POPC      HX             31.1053140489        0.8641081234       17.3408949412  MEMB      63              0.0000000000
      5994        63  POPC      HY             30.1896815408        1.4068842604       15.9357515030  MEMB      63              0.0000000000
      5995        63  POPC      O31            30.8268237700       -0.5684208514       15.8371116760  MEMB      63              0.0000000000
      5996        63  POPC      C31            30.5931963147       -0.5426957869       14.5041877615  MEMB      63              0.0000000000
      5997        63  POPC      O32            30.2163625607        0.4119967636       13.8537614452  MEMB      63              0.0000000000
      5998        63  POPC      C32            30.9130263928       -1.9711584033       13.8260191713  MEMB      63              0.0000000000
      5999        63  POPC      H2X            30.4246788302       -2.7076756747       14.4993540909  MEMB      63              0.0000000000
      6000        63  POPC      H2Y            32.0025045730       -2.0443287918       14.0309675428  MEMB      63              0.0000000000
      6001        63  POPC      C23            26.5704087247       -0.5887921588       14.2210345735  MEMB      63              0.0000000000
      6002        63  POPC      H3R            27.2869696427       -1.4030544263       14.4615309704  MEMB      63              0.0000000000
      6003        63  POPC      H3S            27.1977148973        0.2650104707       13.8866257233  MEMB      63              0.0000000000
      6004        63  POPC      C24            25.6569299135       -1.1629514329       13.1531660480  MEMB      63              0.0000000000
      6005        63  POPC      H4R            24.8186623255       -0.4536231037       12.9844005476  MEMB      63              0.0000000000
      6006        63  POPC      H4S            25.1358432724       -2.1249791107       13.3462790192  MEMB      63              0.0000000000
      6007        63  POPC      C25            26.3707921167       -1.3676459812       11.8353212005  MEMB      63              0.0000000000
      6008        63  POPC      H5R            27.0183180602       -2.2458426070       12.0446106019  MEMB      63              0.0000000000
      6009        63  POPC      H5S            27.0570386426       -0.5403506401       11.5543072866  MEMB      63              0.0000000000
      6010        63  POPC      C26            25.4745919783       -1.8030752961       10.6941611340  MEMB      63              0.0000000000
      6011        63  POPC      H6R            24.8606018549       -0.9315351471       10.3815022763  MEMB      63              0.0000000000
      6012        63  POPC      H6S            24.7971243320       -2.5644473517       11.1365076926  MEMB      63              0.0000000000
      6013        63  POPC      C27            26.2568970452       -2.3518162951        9.4961052805  MEMB      63              0.0000000000
      6014        63  POPC      H7R            27.0305610348       -3.0729523627        9.8362934386  MEMB      63              0.0000000000
      6015        63  POPC      H7S            26.9936815290       -1.5554891401        9.2566626519  MEMB      63              0.0000000000
      6016        63  POPC      C28            25.5047228037       -2.8625036581        8.3050624418  MEMB      63              0.0000000000
      6017        63  POPC      H8R            26.2891205167       -2.9964697819        7.5297598208  MEMB      63              0.0000000000
      6018        63  POPC      H8S            24.9412351269       -1.9732565171        7.9500393255  MEMB      63              0.0000000000
      6019        63  POPC      C29            24.5247331425       -4.0693897343        8.3563443102  MEMB      63              0.0000000000
      6020        63  POPC      H91            23.4721965354       -3.8744876408        8.6096821309  MEMB      63              0.0000000000
      6021        63  POPC      C210           24.8570398939       -5.3160941187        8.0424550329  MEMB      63              0.0000000000
      6022        63  POPC      H101           23.9856854604       -5.9852782442        7.9882884344  MEMB      63              0.0000000000
      6023        63  POPC      C211           26.1705697215       -5.8786007232        7.5936071550  MEMB      63              0.0000000000
      6024        63  POPC      H11R           26.4425960706       -6.7141450981        8.2734514835  MEMB      63              0.0000000000
      6025        63  POPC      H11S           26.9688863996       -5.1488129088        7.8474209894  MEMB      63              0.0000000000
      6026        63  POPC      C212           26.3721085903       -6.4413532706        6.1827845115  MEMB      63              0.0000000000
      6027        63  POPC      H12R           25.7050170893       -7.3290486996        6.1466282552  MEMB      63              0.0000000000
      6028        63  POPC      H12S           27.4501821288       -6.6446100464        6.0073845283  MEMB      63              0.0000000000
      6029        63  POPC      C213           25.8067053712       -5.4637560168        5.1808998578  MEMB      63              0.0000000000
      6030        63  POPC      H13R           26.3677137773       -4.5048597897        5.1913482803  MEMB      63              0.0000000000
      6031        63  POPC      H13S           24.7398220642       -5.1917464310        5.3295329074  MEMB      63              0.0000000000
      6032        63  POPC      C214           26.0823143104       -5.9875634801        3.7487597579  MEMB      63              0.0000000000
      6033        63  POPC      H14R           25.6574374983       -7.0119823252        3.6826847498  MEMB      63              0.0000000000
      6034        63  POPC      H14S           27.1834712520       -5.9538900792        3.6050921650  MEMB      63              0.0000000000
      6035        63  POPC      C215           25.5755170035       -5.0940997079        2.6421991756  MEMB      63              0.0000000000
      6036        63  POPC      H15R           25.9875252566       -4.0756680962        2.8076312951  MEMB      63              0.0000000000
      6037        63  POPC      H15S           24.4664838389       -5.0952698490        2.7082696775  MEMB      63              0.0000000000
      6038        63  POPC      C216           26.0452361959       -5.6681964129        1.3015073055  MEMB      63              0.0000000000
      6039        63  POPC      H16R           25.7242441189       -6.7255204590        1.1859607146  MEMB      63              0.0000000000
      6040        63  POPC      H16S           27.1515833715       -5.6750161963        1.4028517558  MEMB      63              0.0000000000
      6041        63  POPC      C217           25.7688515419       -4.7632696931        0.0931448250  MEMB      63              0.0000000000
      6042        63  POPC      H17R           26.1529598163       -3.7682901184        0.4042672505  MEMB      63              0.0000000000
      6043        63  POPC      H17S           24.6653345112       -4.7385118092       -0.0331794539  MEMB      63              0.0000000000
      6044        63  POPC      C218           26.4666719646       -5.3221408893       -1.1637389399  MEMB      63              0.0000000000
      6045        63  POPC      H18R           26.2013797698       -6.3971922571       -1.2543255609  MEMB      63              0.0000000000
      6046        63  POPC      H18S           27.5468248700       -5.3119425035       -0.9039555381  MEMB      63              0.0000000000
      6047        63  POPC      H18T           26.0750185707       -4.8292476267       -2.0791531002  MEMB      63              0.0000000000
      6048        63  POPC      C33            30.3700712749       -2.0837768360       12.3842556730  MEMB      63              0.0000000000
      6049        63  POPC      H3X            31.1431525407       -1.5742296019       11.7702297225  MEMB      63              0.0000000000
      6050        63  POPC      H3Y            29.3794540035       -1.5879897330       12.2994408265  MEMB      63              0.0000000000
      6051        63  POPC      C34            30.4095223992       -3.5840986628       11.8844414400  MEMB      63              0.0000000000
      6052        63  POPC      H4X            29.5873934873       -4.0446954831       12.4728933797  MEMB      63              0.0000000000
      6053        63  POPC      H4Y            31.3969534038       -4.0185550374       12.1500511624  MEMB      63              0.0000000000
      6054        63  POPC      C35            30.0628212676       -3.8112516562       10.3807116176  MEMB      63              0.0000000000
      6055        63  POPC      H5X            29.1253407753       -3.3069287636       10.0627336661  MEMB      63              0.0000000000
      6056        63  POPC      H5Y            30.0196595184       -4.9138619414       10.2514494087  MEMB      63              0.0000000000
      6057        63  POPC      C36            31.1824147954       -3.3122532820        9.4217318569  MEMB      63              0.0000000000
      6058        63  POPC      H6X            32.0582920515       -3.9662375193        9.6203903133  MEMB      63              0.0000000000
      6059        63  POPC      H6Y            31.4860947017       -2.2571882776        9.5918417859  MEMB      63              0.0000000000
      6060        63  POPC      C37            30.8449783257       -3.5481346868        7.8987250646  MEMB      63              0.0000000000
      6061        63  POPC      H7X            30.5288706517       -4.6067432080        7.7814860065  MEMB      63              0.0000000000
      6062        63  POPC      H7Y            31.8041820493       -3.3318720975        7.3815403024  MEMB      63              0.0000000000
      6063        63  POPC      C38            29.6882309073       -2.6821391829        7.2610842390  MEMB      63              0.0000000000
      6064        63  POPC      H8X            29.8993589011       -1.6113331368        7.4687390668  MEMB      63              0.0000000000
      6065        63  POPC      H8Y            28.7384289444       -2.9634978856        7.7641090857  MEMB      63              0.0000000000
      6066        63  POPC      C39            29.5457988066       -2.8809081790        5.7363947819  MEMB      63              0.0000000000
      6067        63  POPC      H9X            29.2346873322       -3.9355311212        5.5773317669  MEMB      63              0.0000000000
      6068        63  POPC      H9Y            30.5709924604       -2.7782268246        5.3207563009  MEMB      63              0.0000000000
      6069        63  POPC      C310           28.4985510837       -2.0775532209        4.9268323746  MEMB      63              0.0000000000
      6070        63  POPC      H10X           28.6660350165       -1.0881389858        5.4036234589  MEMB      63              0.0000000000
      6071        63  POPC      H10Y           27.4695601009       -2.3532627101        5.2422418232  MEMB      63              0.0000000000
      6072        63  POPC      C311           28.5773557139       -1.9889384902        3.4486957344  MEMB      63              0.0000000000
      6073        63  POPC      H11X           28.1480797294       -2.8153811235        2.8428608641  MEMB      63              0.0000000000
      6074        63  POPC      H11Y           29.6538216850       -1.8171410599        3.2341547047  MEMB      63              0.0000000000
      6075        63  POPC      C312           27.7823966386       -0.8103320459        2.7725480447  MEMB      63              0.0000000000
      6076        63  POPC      H12X           28.0111940154       -0.7830529209        1.6857043781  MEMB      63              0.0000000000
      6077        63  POPC      H12Y           28.1816805411        0.0668013843        3.3252959749  MEMB      63              0.0000000000
      6078        63  POPC      C313           26.3118849894       -0.9530398737        2.8623334825  MEMB      63              0.0000000000
      6079        63  POPC      H13X           25.9448427230       -1.0579429209        3.9056921825  MEMB      63              0.0000000000
      6080        63  POPC      H13Y           25.8729636357       -1.8360717717        2.3505486169  MEMB      63              0.0000000000
      6081        63  POPC      C314           25.6204246894        0.3189233742        2.3269719157  MEMB      63              0.0000000000
      6082        63  POPC      H14X           25.7891695465        1.2227835844        2.9505759647  MEMB      63              0.0000000000
      6083        63  POPC      H14Y           24.5418243711        0.0669425026        2.4132728181  MEMB      63              0.0000000000
      6084        63  POPC      C315           25.8329653972        0.6463568632        0.8379789707  MEMB      63              0.0000000000
      6085        63  POPC      H15X           26.7120293075        1.2686127737        0.5652774059  MEMB      63              0.0000000000
      6086        63  POPC      H15Y           24.9689119840        1.2420300229        0.4734146780  MEMB      63              0.0000000000
      6087        63  POPC      C316           25.6944376295       -0.5930354310       -0.1136068627  MEMB      63              0.0000000000
      6088        63  POPC      H16X           26.5863990032       -1.2553980639       -0.1150764336  MEMB      63              0.0000000000
      6089        63  POPC      H16Y           25.7036318723       -0.1721302851       -1.1417478255  MEMB      63              0.0000000000
      6090        63  POPC      H16Z           24.7360014752       -1.1216848447        0.0767912301  MEMB      63              0.0000000000
      6091        64  POPE      N              26.8724495964       25.9745084222       19.0601645791  MEMB      64              0.0000000000
      6092        64  POPE      HN1            26.2539427928       26.7152144791       18.6723454379  MEMB      64              0.0000000000
      6093        64  POPE      HN2            27.1158058050       26.0109593484       20.0706343382  MEMB      64              0.0000000000
      6094        64  POPE      HN3            27.7445208461       26.1491724610       18.5211059548  MEMB      64              0.0000000000
      6095        64  POPE      C12            26.5219754428       24.5473137371       18.7249814394  MEMB      64              0.0000000000
      6096        64  POPE      H12A           26.3584206239       24.3888322946       17.6375742423  MEMB      64              0.0000000000
      6097        64  POPE      H12B           25.5384079314       24.3255475023       19.1916029435  MEMB      64              0.0000000000
      6098        64  POPE      C11            27.7073340484       23.5569200319       19.1025121009  MEMB      64              0.0000000000
      6099        64  POPE      H11A           28.4702210747       24.0341061765       19.7541392103  MEMB      64              0.0000000000
      6100        64  POPE      H11B           28.2666996803       23.3217024882       18.1718651588  MEMB      64              0.0000000000
      6101        64  POPE      P              26.3128880892       21.3371135021       19.0207440815  MEMB      64              0.0000000000
      6102        64  POPE      O13            24.9698491782       21.6586144287       19.4908231455  MEMB      64              0.0000000000
      6103        64  POPE      O14            26.8262305005       19.9754008985       19.3606654534  MEMB      64              0.0000000000
      6104        64  POPE      O11            26.5319568966       21.6688883086       17.4899709695  MEMB      64              0.0000000000
      6105        64  POPE      O12            27.1961234459       22.4341798552       19.7501382087  MEMB      64              0.0000000000
      6106        64  POPE      C1             26.8276613478       20.6409358924       16.6171030034  MEMB      64              0.0000000000
      6107        64  POPE      HA             26.3692932678       19.6429926528       16.7854156223  MEMB      64              0.0000000000
      6108        64  POPE      HB             27.9262948824       20.4781031740       16.6455781975  MEMB      64              0.0000000000
      6109        64  POPE      C2             26.5173115460       21.1945871328       15.1924140559  MEMB      64              0.0000000000
      6110        64  POPE      HS             26.7944006387       20.3696037014       14.5018018090  MEMB      64              0.0000000000
      6111        64  POPE      O21            27.1077562536       22.4674821347       14.8700253727  MEMB      64              0.0000000000
      6112        64  POPE      C21            28.3284069301       22.4587271665       14.2779841526  MEMB      64              0.0000000000
      6113        64  POPE      O22            28.9634795442       21.4605814855       14.0530319171  MEMB      64              0.0000000000
      6114        64  POPE      C22            28.7072182974       23.8652209270       13.9556625038  MEMB      64              0.0000000000
      6115        64  POPE      H2R            29.2517472576       24.3285162587       14.8060544696  MEMB      64              0.0000000000
      6116        64  POPE      H2S            27.7963125206       24.4810992915       13.7967106032  MEMB      64              0.0000000000
      6117        64  POPE      C3             25.0066543201       21.3863579183       14.8883478185  MEMB      64              0.0000000000
      6118        64  POPE      HX             24.7175091663       22.4167249822       15.1867767896  MEMB      64              0.0000000000
      6119        64  POPE      HY             24.4999414797       20.5892617697       15.4733271643  MEMB      64              0.0000000000
      6120        64  POPE      O31            24.8762399199       21.3454615796       13.5125402033  MEMB      64              0.0000000000
      6121        64  POPE      C31            24.5787371456       20.2595149541       12.8707763437  MEMB      64              0.0000000000
      6122        64  POPE      O32            24.7225374334       19.1641483370       13.3181497222  MEMB      64              0.0000000000
      6123        64  POPE      C32            24.2151008879       20.6650813495       11.4291225361  MEMB      64              0.0000000000
      6124        64  POPE      H2X            24.1574298883       21.7742668185       11.4026139250  MEMB      64              0.0000000000
      6125        64  POPE      H2Y            23.2671018311       20.1594215587       11.1464093526  MEMB      64              0.0000000000
      6126        64  POPE      C23            29.5978959913       23.7576643518       12.7518032572  MEMB      64              0.0000000000
      6127        64  POPE      H3R            30.3385625909       22.9310862715       12.8018316455  MEMB      64              0.0000000000
      6128        64  POPE      H3S            30.2002892709       24.6823063782       12.6234257089  MEMB      64              0.0000000000
      6129        64  POPE      C24            28.7867280893       23.4713367352       11.4551687081  MEMB      64              0.0000000000
      6130        64  POPE      H4R            28.0159195614       24.2278018913       11.1945232627  MEMB      64              0.0000000000
      6131        64  POPE      H4S            28.1895282796       22.5378067869       11.5338808271  MEMB      64              0.0000000000
      6132        64  POPE      C25            29.6209578657       23.2941660034       10.1839430582  MEMB      64              0.0000000000
      6133        64  POPE      H5R            30.3764532094       22.4878756764       10.2998896553  MEMB      64              0.0000000000
      6134        64  POPE      H5S            30.1371575198       24.2752653775       10.1111225575  MEMB      64              0.0000000000
      6135        64  POPE      C26            28.7640148059       22.8743770703        9.0210063190  MEMB      64              0.0000000000
      6136        64  POPE      H6R            28.0187391710       23.6696804930        8.8056516066  MEMB      64              0.0000000000
      6137        64  POPE      H6S            28.2848014796       21.9194960705        9.3257652492  MEMB      64              0.0000000000
      6138        64  POPE      C27            29.4198519378       22.5945883966        7.6307402452  MEMB      64              0.0000000000
      6139        64  POPE      H7R            30.0422180491       21.6797799189        7.7312732224  MEMB      64              0.0000000000
      6140        64  POPE      H7S            30.0876645137       23.4446868823        7.3744599372  MEMB      64              0.0000000000
      6141        64  POPE      C28            28.3769034168       22.5401095394        6.4599579302  MEMB      64              0.0000000000
      6142        64  POPE      H8R            28.8368093471       22.6108297588        5.4510940668  MEMB      64              0.0000000000
      6143        64  POPE      H8S            27.8284479334       23.5062432702        6.4701210065  MEMB      64              0.0000000000
      6144        64  POPE      C29            27.3688124312       21.3685764203        6.4341504499  MEMB      64              0.0000000000
      6145        64  POPE      H91            27.8115362018       20.4097028691        6.7416521343  MEMB      64              0.0000000000
      6146        64  POPE      C210           26.0582161852       21.4410441185        6.1313334952  MEMB      64              0.0000000000
      6147        64  POPE      H101           25.4181349317       20.5464528216        6.1329003235  MEMB      64              0.0000000000
      6148        64  POPE      C211           25.3366117480       22.7365317468        5.6949868102  MEMB      64              0.0000000000
      6149        64  POPE      H11R           26.1005559412       23.4730677199        5.3660111085  MEMB      64              0.0000000000
      6150        64  POPE      H11S           24.7289708362       23.2814571035        6.4487441274  MEMB      64              0.0000000000
      6151        64  POPE      C212           24.4847704934       22.4785432520        4.4386319983  MEMB      64              0.0000000000
      6152        64  POPE      H12R           24.2166702854       23.4639374932        4.0010918040  MEMB      64              0.0000000000
      6153        64  POPE      H12S           23.4833026628       22.0019947207        4.5040907662  MEMB      64              0.0000000000
      6154        64  POPE      C213           25.3071355701       21.7224368699        3.3615598381  MEMB      64              0.0000000000
      6155        64  POPE      H13R           25.4243001689       20.7049257228        3.7919832902  MEMB      64              0.0000000000
      6156        64  POPE      H13S           26.2894694886       22.1116398489        3.0182490512  MEMB      64              0.0000000000
      6157        64  POPE      C214           24.5525925753       21.4039316987        2.0634230188  MEMB      64              0.0000000000
      6158        64  POPE      H14R           23.6956253946       20.7731437574        2.3828521077  MEMB      64              0.0000000000
      6159        64  POPE      H14S           24.9644815958       20.6333425691        1.3772312335  MEMB      64              0.0000000000
      6160        64  POPE      C215           24.2066310670       22.6564198587        1.2417810374  MEMB      64              0.0000000000
      6161        64  POPE      H15R           24.8587910771       22.5572411863        0.3478177706  MEMB      64              0.0000000000
      6162        64  POPE      H15S           24.5016644140       23.5826181401        1.7797720816  MEMB      64              0.0000000000
      6163        64  POPE      C216           22.7386232504       22.7973453870        0.7995399550  MEMB      64              0.0000000000
      6164        64  POPE      H16R           22.0611409570       22.6209660522        1.6622268659  MEMB      64              0.0000000000
      6165        64  POPE      H16S           22.6954102394       21.8929946979        0.1556423254  MEMB      64              0.0000000000
      6166        64  POPE      C217           22.2819749723       24.0863660642        0.1271230296  MEMB      64              0.0000000000
      6167        64  POPE      H17R           22.1740208053       24.8692970025        0.9079480967  MEMB      64              0.0000000000
      6168        64  POPE      H17S           21.2315560419       23.8518007160       -0.1484115227  MEMB      64              0.0000000000
      6169        64  POPE      C218           23.0660104546       24.6516303573       -1.0533682067  MEMB      64              0.0000000000
      6170        64  POPE      H18R           22.7833315386       24.1448363344       -2.0007705349  MEMB      64              0.0000000000
      6171        64  POPE      H18S           24.1532357597       24.5651130013       -0.8417622215  MEMB      64              0.0000000000
      6172        64  POPE      H18T           22.7824318010       25.7212446227       -1.1525083615  MEMB      64              0.0000000000
      6173        64  POPE      C33            25.2309947653       20.1948505397       10.3732390818  MEMB      64              0.0000000000
      6174        64  POPE      H3X            26.0632489630       20.9111576021       10.5422898513  MEMB      64              0.0000000000
      6175        64  POPE      H3Y            24.8549495835       20.5154707727        9.3781939741  MEMB      64              0.0000000000
      6176        64  POPE      C34            25.7764128672       18.7070153765       10.2554794200  MEMB      64              0.0000000000
      6177        64  POPE      H4X            24.9079629357       18.0372165331       10.4329202744  MEMB      64              0.0000000000
      6178        64  POPE      H4Y            26.5360762291       18.6805629883       11.0657460587  MEMB      64              0.0000000000
      6179        64  POPE      C35            26.3673551475       18.4256135770        8.8588647228  MEMB      64              0.0000000000
      6180        64  POPE      H5X            27.1726551540       19.1592074142        8.6405689876  MEMB      64              0.0000000000
      6181        64  POPE      H5Y            25.5952577231       18.6569668142        8.0942324490  MEMB      64              0.0000000000
      6182        64  POPE      C36            26.8996113004       17.0584495387        8.7036324884  MEMB      64              0.0000000000
      6183        64  POPE      H6X            26.0426870642       16.3543909816        8.7692333662  MEMB      64              0.0000000000
      6184        64  POPE      H6Y            27.6820395113       16.8218350107        9.4560567250  MEMB      64              0.0000000000
      6185        64  POPE      C37            27.6793399527       16.8086317251        7.3722817135  MEMB      64              0.0000000000
      6186        64  POPE      H7X            27.8970369824       15.7191956746        7.3646829897  MEMB      64              0.0000000000
      6187        64  POPE      H7Y            28.6362361011       17.3729577817        7.3578881445  MEMB      64              0.0000000000
      6188        64  POPE      C38            26.8652952780       17.1942278717        6.0625145324  MEMB      64              0.0000000000
      6189        64  POPE      H8X            26.7139305457       18.2902647530        6.1630787719  MEMB      64              0.0000000000
      6190        64  POPE      H8Y            25.7768134655       16.9736890922        6.0923653735  MEMB      64              0.0000000000
      6191        64  POPE      C39            27.5543639303       16.7604222615        4.7647547440  MEMB      64              0.0000000000
      6192        64  POPE      H9X            27.1928885368       15.8097749872        4.3176231272  MEMB      64              0.0000000000
      6193        64  POPE      H9Y            28.6399760734       16.6677223055        4.9819492124  MEMB      64              0.0000000000
      6194        64  POPE      C310           27.6187448578       17.8658422185        3.6847183189  MEMB      64              0.0000000000
      6195        64  POPE      H10X           28.3828429466       17.5166746959        2.9576995235  MEMB      64              0.0000000000
      6196        64  POPE      H10Y           28.0516610597       18.8011975339        4.0994646424  MEMB      64              0.0000000000
      6197        64  POPE      C311           26.2433747586       18.0471389671        2.9797427735  MEMB      64              0.0000000000
      6198        64  POPE      H11X           26.4051306489       18.8351269616        2.2134322559  MEMB      64              0.0000000000
      6199        64  POPE      H11Y           25.5266893159       18.5246385602        3.6816519941  MEMB      64              0.0000000000
      6200        64  POPE      C312           25.6725118228       16.7754239590        2.3120599763  MEMB      64              0.0000000000
      6201        64  POPE      H12X           25.2118426806       16.0327930321        2.9980658121  MEMB      64              0.0000000000
      6202        64  POPE      H12Y           26.6111766231       16.3780044766        1.8701472405  MEMB      64              0.0000000000
      6203        64  POPE      C313           24.6434573073       17.0807396592        1.2106361270  MEMB      64              0.0000000000
      6204        64  POPE      H13X           24.2532810810       16.1329424736        0.7819575500  MEMB      64              0.0000000000
      6205        64  POPE      H13Y           25.1384007397       17.5955753360        0.3595795383  MEMB      64              0.0000000000
      6206        64  POPE      C314           23.4500730710       17.9500029492        1.6918311569  MEMB      64              0.0000000000
      6207        64  POPE      H14X           23.8672447829       18.8587803513        2.1759936245  MEMB      64              0.0000000000
      6208        64  POPE      H14Y           23.0243016652       17.3594003736        2.5310136944  MEMB      64              0.0000000000
      6209        64  POPE      C315           22.3661791329       18.1292642280        0.6423338242  MEMB      64              0.0000000000
      6210        64  POPE      H15X           22.0030278050       17.1203780941        0.3514904998  MEMB      64              0.0000000000
      6211        64  POPE      H15Y           22.7879019910       18.5729942692       -0.2847982189  MEMB      64              0.0000000000
      6212        64  POPE      C316           21.2823731898       19.0788548359        1.0871431442  MEMB      64              0.0000000000
      6213        64  POPE      H16X           20.4689002571       19.2083723060        0.3416177405  MEMB      64              0.0000000000
      6214        64  POPE      H16Y           21.7377512397       20.0898972338        1.1560271785  MEMB      64              0.0000000000
      6215        64  POPE      H16Z           20.7612636941       18.8471597648        2.0406017315  MEMB      64              0.0000000000
      6216        65  POPE      N             -10.4641894867      -20.9589440251       17.0705145427  MEMB      65              0.0000000000
      6217        65  POPE      HN1           -11.1219629845      -20.1544700749       17.0286171372  MEMB      65              0.0000000000
      6218        65  POPE      HN2            -9.5371855991      -20.5724222877       16.8005798860  MEMB      65              0.0000000000
      6219        65  POPE      HN3           -10.7284653588      -21.7643298003       16.4679266119  MEMB      65              0.0000000000
      6220        65  POPE      C12           -10.4033605812      -21.2911322122       18.5234774992  MEMB      65              0.0000000000
      6221        65  POPE      H12A          -11.3462201341      -21.7001786190       18.9453991316  MEMB      65              0.0000000000
      6222        65  POPE      H12B          -10.1597390521      -20.3496555994       19.0606847449  MEMB      65              0.0000000000
      6223        65  POPE      C11            -9.2133736531      -22.3034248279       18.7328682654  MEMB      65              0.0000000000
      6224        65  POPE      H11A           -8.6521577914      -21.9225779485       19.6128190690  MEMB      65              0.0000000000
      6225        65  POPE      H11B           -8.4879923600      -22.2995748503       17.8913647331  MEMB      65              0.0000000000
      6226        65  POPE      P              -8.6254699482      -24.7191490191       19.6225763226  MEMB      65              0.0000000000
      6227        65  POPE      O13            -9.4046125280      -25.9107931554       19.9825157554  MEMB      65              0.0000000000
      6228        65  POPE      O14            -7.8422230286      -23.9737131126       20.6415165376  MEMB      65              0.0000000000
      6229        65  POPE      O11            -7.5736844983      -25.0016022523       18.4033885185  MEMB      65              0.0000000000
      6230        65  POPE      O12            -9.6514172405      -23.6707565792       19.0231425600  MEMB      65              0.0000000000
      6231        65  POPE      C1             -6.3976325653      -24.2398983298       18.2098083029  MEMB      65              0.0000000000
      6232        65  POPE      HA             -5.5909401264      -24.6000417990       18.8835032345  MEMB      65              0.0000000000
      6233        65  POPE      HB             -6.6252493475      -23.1748370223       18.4292533736  MEMB      65              0.0000000000
      6234        65  POPE      C2             -5.8724965423      -24.5142998161       16.7798176596  MEMB      65              0.0000000000
      6235        65  POPE      HS             -5.2667524986      -23.5988467415       16.6085260909  MEMB      65              0.0000000000
      6236        65  POPE      O21            -6.9276131100      -24.6978816782       15.7929634870  MEMB      65              0.0000000000
      6237        65  POPE      C21            -7.4742269266      -23.5999766076       15.2888533599  MEMB      65              0.0000000000
      6238        65  POPE      O22            -7.0072406475      -22.4379732593       15.4198238684  MEMB      65              0.0000000000
      6239        65  POPE      C22            -8.5364314203      -24.0237548197       14.3444297171  MEMB      65              0.0000000000
      6240        65  POPE      H2R            -8.8554615360      -25.0748212040       14.5111635368  MEMB      65              0.0000000000
      6241        65  POPE      H2S            -8.0316550583      -24.1310291297       13.3605529695  MEMB      65              0.0000000000
      6242        65  POPE      C3             -5.0651435797      -25.7734497311       16.6491867203  MEMB      65              0.0000000000
      6243        65  POPE      HX             -4.1541939846      -25.8227364425       17.2832701450  MEMB      65              0.0000000000
      6244        65  POPE      HY             -4.6151817376      -25.5945701910       15.6492579338  MEMB      65              0.0000000000
      6245        65  POPE      O31            -5.8311191226      -26.9439948265       16.9451417237  MEMB      65              0.0000000000
      6246        65  POPE      C31            -5.9540722620      -27.8116272130       16.0072802730  MEMB      65              0.0000000000
      6247        65  POPE      O32            -5.4464062458      -27.8255675193       14.9308173084  MEMB      65              0.0000000000
      6248        65  POPE      C32            -7.0536608054      -28.8052293016       16.4106701283  MEMB      65              0.0000000000
      6249        65  POPE      H2X            -7.5698746822      -28.5810559663       17.3685796854  MEMB      65              0.0000000000
      6250        65  POPE      H2Y            -6.4909122138      -29.7455475279       16.5935265608  MEMB      65              0.0000000000
      6251        65  POPE      C23            -9.6684115522      -23.0098208387       14.2053081852  MEMB      65              0.0000000000
      6252        65  POPE      H3R            -9.2317755042      -21.9901352517       14.2678451351  MEMB      65              0.0000000000
      6253        65  POPE      H3S           -10.2608858383      -23.0372228185       15.1447463776  MEMB      65              0.0000000000
      6254        65  POPE      C24           -10.3871219208      -22.9319727736       12.8941087071  MEMB      65              0.0000000000
      6255        65  POPE      H4R            -9.6109710977      -23.1314641022       12.1246195346  MEMB      65              0.0000000000
      6256        65  POPE      H4S           -10.7157561621      -21.8949419399       12.6685260193  MEMB      65              0.0000000000
      6257        65  POPE      C25           -11.6391236534      -23.8391080069       12.8202256951  MEMB      65              0.0000000000
      6258        65  POPE      H5R           -12.4672832630      -23.2667595224       13.2902146282  MEMB      65              0.0000000000
      6259        65  POPE      H5S           -11.5318727332      -24.8327236645       13.3055569125  MEMB      65              0.0000000000
      6260        65  POPE      C26           -12.1966849078      -23.9634247114       11.3127198430  MEMB      65              0.0000000000
      6261        65  POPE      H6R           -11.8722954807      -23.0030691097       10.8579565357  MEMB      65              0.0000000000
      6262        65  POPE      H6S           -13.3005453616      -24.0891579504       11.3147550240  MEMB      65              0.0000000000
      6263        65  POPE      C27           -11.6151133844      -25.1052991248       10.4252945142  MEMB      65              0.0000000000
      6264        65  POPE      H7R           -11.8228223043      -26.0909121474       10.8940641218  MEMB      65              0.0000000000
      6265        65  POPE      H7S           -10.5138804085      -24.9593365577       10.4426718362  MEMB      65              0.0000000000
      6266        65  POPE      C28           -12.0195085202      -25.0377736154        8.9950262162  MEMB      65              0.0000000000
      6267        65  POPE      H8R           -13.1069995173      -25.2534286514        8.9230688003  MEMB      65              0.0000000000
      6268        65  POPE      H8S           -11.4745835834      -25.9085327185        8.5717577990  MEMB      65              0.0000000000
      6269        65  POPE      C29           -11.6991171912      -23.8479657054        8.2082952835  MEMB      65              0.0000000000
      6270        65  POPE      H91           -11.0315030101      -23.1466427576        8.7302507782  MEMB      65              0.0000000000
      6271        65  POPE      C210          -12.1064288899      -23.4906681589        6.9513682953  MEMB      65              0.0000000000
      6272        65  POPE      H101          -11.6016565572      -22.6408049676        6.4687329246  MEMB      65              0.0000000000
      6273        65  POPE      C211          -13.0553489928      -24.2683042831        6.1676800768  MEMB      65              0.0000000000
      6274        65  POPE      H11R          -13.7800663642      -23.4810856021        5.8686951317  MEMB      65              0.0000000000
      6275        65  POPE      H11S          -13.6460561653      -24.9468513595        6.8195694969  MEMB      65              0.0000000000
      6276        65  POPE      C212          -12.5548122941      -25.1193922604        4.9168935379  MEMB      65              0.0000000000
      6277        65  POPE      H12R          -13.3542910122      -25.8500198787        4.6692276531  MEMB      65              0.0000000000
      6278        65  POPE      H12S          -11.7323387905      -25.8282667079        5.1521700796  MEMB      65              0.0000000000
      6279        65  POPE      C213          -12.3053968518      -24.3640495410        3.6097105111  MEMB      65              0.0000000000
      6280        65  POPE      H13R          -11.5627078078      -23.5833080869        3.8802224371  MEMB      65              0.0000000000
      6281        65  POPE      H13S          -13.1991071417      -23.8189849110        3.2375437969  MEMB      65              0.0000000000
      6282        65  POPE      C214          -11.8777301952      -25.2130377404        2.4913749522  MEMB      65              0.0000000000
      6283        65  POPE      H14R          -11.0928894526      -25.8607896220        2.9372038606  MEMB      65              0.0000000000
      6284        65  POPE      H14S          -11.4181823188      -24.5054221679        1.7685902817  MEMB      65              0.0000000000
      6285        65  POPE      C215          -12.9569881074      -26.0723249140        1.8557772396  MEMB      65              0.0000000000
      6286        65  POPE      H15R          -13.9296379935      -25.5398724189        1.9248232055  MEMB      65              0.0000000000
      6287        65  POPE      H15S          -13.0354726812      -27.0010093295        2.4605134552  MEMB      65              0.0000000000
      6288        65  POPE      C216          -12.6654017700      -26.5870388134        0.3909109521  MEMB      65              0.0000000000
      6289        65  POPE      H16R          -13.3943762727      -27.3904020903        0.1510688918  MEMB      65              0.0000000000
      6290        65  POPE      H16S          -11.6104576551      -26.9350766561        0.4077595495  MEMB      65              0.0000000000
      6291        65  POPE      C217          -12.6491909094      -25.4813347155       -0.6144024683  MEMB      65              0.0000000000
      6292        65  POPE      H17R          -11.6651351436      -24.9833206213       -0.4804714923  MEMB      65              0.0000000000
      6293        65  POPE      H17S          -13.5025873589      -24.7920184015       -0.4386789518  MEMB      65              0.0000000000
      6294        65  POPE      C218          -12.7042592157      -25.9035759901       -2.0746855383  MEMB      65              0.0000000000
      6295        65  POPE      H18R          -12.1047873571      -25.1895881591       -2.6789826658  MEMB      65              0.0000000000
      6296        65  POPE      H18S          -13.7730750323      -25.8455175633       -2.3723143311  MEMB      65              0.0000000000
      6297        65  POPE      H18T          -12.3846683620      -26.9405892656       -2.3129845638  MEMB      65              0.0000000000
      6298        65  POPE      C33            -8.1279366740      -28.9179031482       15.2637771997  MEMB      65              0.0000000000
      6299        65  POPE      H3X            -8.9626888600      -29.5343401589       15.6606585166  MEMB      65              0.0000000000
      6300        65  POPE      H3Y            -7.6904089069      -29.4360801719       14.3837870793  MEMB      65              0.0000000000
      6301        65  POPE      C34            -8.7188974841      -27.6559363547       14.6322206804  MEMB      65              0.0000000000
      6302        65  POPE      H4X            -7.8978005887      -27.0370040366       14.2114546009  MEMB      65              0.0000000000
      6303        65  POPE      H4Y            -9.0306730036      -27.0292487433       15.4949948239  MEMB      65              0.0000000000
      6304        65  POPE      C35            -9.7790034530      -27.8470806751       13.4994945728  MEMB      65              0.0000000000
      6305        65  POPE      H5X           -10.3291750894      -26.9351321680       13.1832952049  MEMB      65              0.0000000000
      6306        65  POPE      H5Y           -10.4525167015      -28.7085874209       13.6957274397  MEMB      65              0.0000000000
      6307        65  POPE      C36            -9.1902337949      -28.3020041893       12.1216730333  MEMB      65              0.0000000000
      6308        65  POPE      H6X           -10.0186711783      -28.5641840640       11.4293768767  MEMB      65              0.0000000000
      6309        65  POPE      H6Y            -8.5875804727      -29.2299784944       12.2216419207  MEMB      65              0.0000000000
      6310        65  POPE      C37            -8.2179705987      -27.2520520686       11.5631592463  MEMB      65              0.0000000000
      6311        65  POPE      H7X            -7.2936136509      -27.2916873379       12.1782315468  MEMB      65              0.0000000000
      6312        65  POPE      H7Y            -8.6257969345      -26.2206200653       11.6275526032  MEMB      65              0.0000000000
      6313        65  POPE      C38            -7.8150225065      -27.3589396029       10.0639557877  MEMB      65              0.0000000000
      6314        65  POPE      H8X            -8.7154666276      -27.3191023574        9.4143911856  MEMB      65              0.0000000000
      6315        65  POPE      H8Y            -7.3190783587      -28.3518041160       10.0131571762  MEMB      65              0.0000000000
      6316        65  POPE      C39            -6.8741872075      -26.2407925963        9.7584024263  MEMB      65              0.0000000000
      6317        65  POPE      H9X            -6.0024097806      -26.3187240589       10.4426913470  MEMB      65              0.0000000000
      6318        65  POPE      H9Y            -7.3588318350      -25.2712158554       10.0020445841  MEMB      65              0.0000000000
      6319        65  POPE      C310           -6.3521726572      -26.2614078364        8.2852760065  MEMB      65              0.0000000000
      6320        65  POPE      H10X           -5.8485694194      -27.2369989198        8.1151978733  MEMB      65              0.0000000000
      6321        65  POPE      H10Y           -5.6376979854      -25.4146313693        8.2027139107  MEMB      65              0.0000000000
      6322        65  POPE      C311           -7.5366402713      -25.9699760890        7.3524667619  MEMB      65              0.0000000000
      6323        65  POPE      H11X           -8.0320898022      -25.1033798940        7.8401782085  MEMB      65              0.0000000000
      6324        65  POPE      H11Y           -8.3012299299      -26.7677389742        7.2371505477  MEMB      65              0.0000000000
      6325        65  POPE      C312           -7.2531237248      -25.4806943424        5.9418425083  MEMB      65              0.0000000000
      6326        65  POPE      H12X           -6.7605093986      -24.4910058982        5.8315291820  MEMB      65              0.0000000000
      6327        65  POPE      H12Y           -8.2466598001      -25.3394485902        5.4651280158  MEMB      65              0.0000000000
      6328        65  POPE      C313           -6.4796212165      -26.5426034383        5.1468204429  MEMB      65              0.0000000000
      6329        65  POPE      H13X           -6.8969049216      -27.5426347838        5.3920399024  MEMB      65              0.0000000000
      6330        65  POPE      H13Y           -5.4310930399      -26.4583355465        5.5043238198  MEMB      65              0.0000000000
      6331        65  POPE      C314           -6.5857735228      -26.4885658411        3.5919356823  MEMB      65              0.0000000000
      6332        65  POPE      H14X           -6.0446938425      -27.3285332584        3.1061287315  MEMB      65              0.0000000000
      6333        65  POPE      H14Y           -6.2098254027      -25.5538761682        3.1235989896  MEMB      65              0.0000000000
      6334        65  POPE      C315           -8.0225326290      -26.7852907407        3.0409814278  MEMB      65              0.0000000000
      6335        65  POPE      H15X           -8.4740523148      -25.7936157964        3.2578509943  MEMB      65              0.0000000000
      6336        65  POPE      H15Y           -8.6820196894      -27.4229827235        3.6676768647  MEMB      65              0.0000000000
      6337        65  POPE      C316           -8.0786913016      -27.1640945662        1.5527128028  MEMB      65              0.0000000000
      6338        65  POPE      H16X           -7.3606849256      -27.9530753225        1.2423957050  MEMB      65              0.0000000000
      6339        65  POPE      H16Y           -7.7272322570      -26.3393979395        0.8964567600  MEMB      65              0.0000000000
      6340        65  POPE      H16Z           -9.1291271684      -27.3129893386        1.2229628589  MEMB      65              0.0000000000
      6341        66  POPE      N             -19.6022422766      -19.5545508294       20.1848473421  MEMB      66              0.0000000000
      6342        66  POPE      HN1           -19.6002389267      -18.7012081512       20.7793238708  MEMB      66              0.0000000000
      6343        66  POPE      HN2           -19.4953978622      -19.1285446191       19.2421368860  MEMB      66              0.0000000000
      6344        66  POPE      HN3           -20.5880416332      -19.8720415813       20.2797113920  MEMB      66              0.0000000000
      6345        66  POPE      C12           -18.5617431157      -20.5117709011       20.4458381156  MEMB      66              0.0000000000
      6346        66  POPE      H12A          -18.6301562234      -21.3584254338       19.7297259997  MEMB      66              0.0000000000
      6347        66  POPE      H12B          -18.7006519068      -20.9250330749       21.4677185032  MEMB      66              0.0000000000
      6348        66  POPE      C11           -17.1356847902      -19.8083259606       20.2403502044  MEMB      66              0.0000000000
      6349        66  POPE      H11A          -16.4244170118      -20.6020638203       20.5540369781  MEMB      66              0.0000000000
      6350        66  POPE      H11B          -17.0806776684      -19.0117123374       21.0128150922  MEMB      66              0.0000000000
      6351        66  POPE      P             -15.5515056212      -19.3425479517       18.2605135789  MEMB      66              0.0000000000
      6352        66  POPE      O13           -14.6681775974      -20.4620601095       18.6589245861  MEMB      66              0.0000000000
      6353        66  POPE      O14           -14.9532519235      -18.0227023140       18.5410159898  MEMB      66              0.0000000000
      6354        66  POPE      O11           -15.7808136062      -19.4760658357       16.7787351890  MEMB      66              0.0000000000
      6355        66  POPE      O12           -17.0061605649      -19.4471530598       18.8897750176  MEMB      66              0.0000000000
      6356        66  POPE      C1            -16.6382101762      -20.4204849070       16.1144764412  MEMB      66              0.0000000000
      6357        66  POPE      HA            -17.6665755389      -20.4114387215       16.5348380555  MEMB      66              0.0000000000
      6358        66  POPE      HB            -16.2071954944      -21.4440156716       16.1450042684  MEMB      66              0.0000000000
      6359        66  POPE      C2            -16.7241332545      -20.2672141229       14.5596242689  MEMB      66              0.0000000000
      6360        66  POPE      HS            -15.7816586761      -20.6411457287       14.1054902164  MEMB      66              0.0000000000
      6361        66  POPE      O21           -16.8983527776      -18.9038969996       14.1105971096  MEMB      66              0.0000000000
      6362        66  POPE      C21           -16.3969055814      -18.5128783301       12.9165972417  MEMB      66              0.0000000000
      6363        66  POPE      O22           -15.6696721960      -19.2644717002       12.2507251195  MEMB      66              0.0000000000
      6364        66  POPE      C22           -16.7740939058      -17.0449765585       12.5798470416  MEMB      66              0.0000000000
      6365        66  POPE      H2R           -15.8196974148      -16.5282419779       12.3422899316  MEMB      66              0.0000000000
      6366        66  POPE      H2S           -17.2146592338      -16.5096673514       13.4479871982  MEMB      66              0.0000000000
      6367        66  POPE      C3            -17.8764524408      -21.1402583665       14.0131865484  MEMB      66              0.0000000000
      6368        66  POPE      HX            -18.7509670582      -20.8791687172       14.6467299988  MEMB      66              0.0000000000
      6369        66  POPE      HY            -17.6968093249      -22.2216177850       14.1940483811  MEMB      66              0.0000000000
      6370        66  POPE      O31           -18.1741034060      -21.0462476906       12.5658072412  MEMB      66              0.0000000000
      6371        66  POPE      C31           -19.1545481675      -21.9797990053       12.1969865004  MEMB      66              0.0000000000
      6372        66  POPE      O32           -19.8690663473      -22.5773936265       12.8996079263  MEMB      66              0.0000000000
      6373        66  POPE      C32           -19.1827859457      -21.8369650438       10.6740411891  MEMB      66              0.0000000000
      6374        66  POPE      H2X           -18.5893312699      -20.9707169133       10.3110718673  MEMB      66              0.0000000000
      6375        66  POPE      H2Y           -20.2236619823      -21.5716198464       10.3903337925  MEMB      66              0.0000000000
      6376        66  POPE      C23           -17.5675004364      -17.0501497686       11.2362552324  MEMB      66              0.0000000000
      6377        66  POPE      H3R           -18.3383421590      -17.8486174884       11.1855297409  MEMB      66              0.0000000000
      6378        66  POPE      H3S           -16.8476354972      -17.2797893950       10.4217730864  MEMB      66              0.0000000000
      6379        66  POPE      C24           -18.3010156122      -15.6660278706       11.0429698972  MEMB      66              0.0000000000
      6380        66  POPE      H4R           -17.6144379838      -14.8181741594       11.2529135528  MEMB      66              0.0000000000
      6381        66  POPE      H4S           -19.0780951643      -15.6008006662       11.8343065622  MEMB      66              0.0000000000
      6382        66  POPE      C25           -19.0484934181      -15.6710037187        9.7098508825  MEMB      66              0.0000000000
      6383        66  POPE      H5R           -18.3092930024      -15.6493516200        8.8807339757  MEMB      66              0.0000000000
      6384        66  POPE      H5S           -19.5964905862      -14.7080690725        9.6275269916  MEMB      66              0.0000000000
      6385        66  POPE      C26           -19.9871961117      -16.8931358346        9.5341457690  MEMB      66              0.0000000000
      6386        66  POPE      H6R           -20.5553784087      -17.1265524095       10.4598919366  MEMB      66              0.0000000000
      6387        66  POPE      H6S           -19.4206206981      -17.8268185346        9.3303086937  MEMB      66              0.0000000000
      6388        66  POPE      C27           -20.9409087288      -16.8539709281        8.3271803705  MEMB      66              0.0000000000
      6389        66  POPE      H7R           -20.2261346570      -16.7264714257        7.4862508926  MEMB      66              0.0000000000
      6390        66  POPE      H7S           -21.7445746112      -16.1022933875        8.4802250371  MEMB      66              0.0000000000
      6391        66  POPE      C28           -21.7214759763      -18.1038951678        8.2232661326  MEMB      66              0.0000000000
      6392        66  POPE      H8R           -22.3428361740      -17.9435183909        7.3163423051  MEMB      66              0.0000000000
      6393        66  POPE      H8S           -22.5064802165      -18.2092235200        9.0023649943  MEMB      66              0.0000000000
      6394        66  POPE      C29           -21.1283919267      -19.4604851355        8.1684476201  MEMB      66              0.0000000000
      6395        66  POPE      H91           -20.4764045473      -19.7893857407        8.9910876790  MEMB      66              0.0000000000
      6396        66  POPE      C210          -21.2410142018      -20.3502746964        7.1421084822  MEMB      66              0.0000000000
      6397        66  POPE      H101          -20.7697901228      -21.3441469394        7.1549841242  MEMB      66              0.0000000000
      6398        66  POPE      C211          -22.0464474663      -20.1661296143        5.8832455655  MEMB      66              0.0000000000
      6399        66  POPE      H11R          -21.4037907987      -19.9568661098        5.0014733526  MEMB      66              0.0000000000
      6400        66  POPE      H11S          -22.7382177805      -19.3200305856        6.0829735101  MEMB      66              0.0000000000
      6401        66  POPE      C212          -22.9013285951      -21.4330549434        5.5638357084  MEMB      66              0.0000000000
      6402        66  POPE      H12R          -23.5535288430      -21.1377116844        4.7142899791  MEMB      66              0.0000000000
      6403        66  POPE      H12S          -23.7467514247      -21.6395593372        6.2544421050  MEMB      66              0.0000000000
      6404        66  POPE      C213          -22.1498585913      -22.7455986619        5.2119589116  MEMB      66              0.0000000000
      6405        66  POPE      H13R          -22.7349437999      -23.5207429323        5.7515400079  MEMB      66              0.0000000000
      6406        66  POPE      H13S          -21.1849073218      -22.9552894460        5.7210963115  MEMB      66              0.0000000000
      6407        66  POPE      C214          -21.9431870671      -23.0117496236        3.6931352768  MEMB      66              0.0000000000
      6408        66  POPE      H14R          -21.1259393915      -22.4733834401        3.1672179401  MEMB      66              0.0000000000
      6409        66  POPE      H14S          -22.8449599711      -22.6353148013        3.1645304859  MEMB      66              0.0000000000
      6410        66  POPE      C215          -21.8366088903      -24.5602297850        3.3739508695  MEMB      66              0.0000000000
      6411        66  POPE      H15R          -22.4551821586      -25.1165669840        4.1102777373  MEMB      66              0.0000000000
      6412        66  POPE      H15S          -20.8066065504      -24.8842924582        3.6354859056  MEMB      66              0.0000000000
      6413        66  POPE      C216          -22.2487517903      -25.0050607175        1.9117719923  MEMB      66              0.0000000000
      6414        66  POPE      H16R          -23.3078347823      -24.7347767357        1.7127474582  MEMB      66              0.0000000000
      6415        66  POPE      H16S          -22.0902719892      -26.1037032719        1.8649690776  MEMB      66              0.0000000000
      6416        66  POPE      C217          -21.4086024967      -24.3108122601        0.8515279039  MEMB      66              0.0000000000
      6417        66  POPE      H17R          -21.4958138067      -23.2074383254        0.7551878233  MEMB      66              0.0000000000
      6418        66  POPE      H17S          -21.7247227581      -24.7890824151       -0.1001279902  MEMB      66              0.0000000000
      6419        66  POPE      C218          -19.8828761206      -24.5496830743        1.0549656457  MEMB      66              0.0000000000
      6420        66  POPE      H18R          -19.3928127039      -24.2539928989        0.1027439539  MEMB      66              0.0000000000
      6421        66  POPE      H18S          -19.7449503354      -25.6346540636        1.2502490987  MEMB      66              0.0000000000
      6422        66  POPE      H18T          -19.5181581397      -23.9102199207        1.8870649985  MEMB      66              0.0000000000
      6423        66  POPE      C33           -18.8112179164      -23.1600542519       10.0219726536  MEMB      66              0.0000000000
      6424        66  POPE      H3X           -19.3810410008      -23.9727729301       10.5210832857  MEMB      66              0.0000000000
      6425        66  POPE      H3Y           -17.7640550087      -23.4283856005       10.2784283155  MEMB      66              0.0000000000
      6426        66  POPE      C34           -19.1040689496      -23.2040135414        8.5132464744  MEMB      66              0.0000000000
      6427        66  POPE      H4X           -18.9949194149      -22.1473826065        8.1877643393  MEMB      66              0.0000000000
      6428        66  POPE      H4Y           -20.1417897428      -23.5612531755        8.3405127982  MEMB      66              0.0000000000
      6429        66  POPE      C35           -18.2695421873      -24.2185795266        7.7854688960  MEMB      66              0.0000000000
      6430        66  POPE      H5X           -18.1911495439      -25.0811900043        8.4812266866  MEMB      66              0.0000000000
      6431        66  POPE      H5Y           -17.2758093637      -23.7285633282        7.7036134967  MEMB      66              0.0000000000
      6432        66  POPE      C36           -18.7684414769      -24.6378548814        6.3777226420  MEMB      66              0.0000000000
      6433        66  POPE      H6X           -19.8015390804      -25.0356753205        6.4713671647  MEMB      66              0.0000000000
      6434        66  POPE      H6Y           -18.1237748781      -25.4547109080        5.9885281827  MEMB      66              0.0000000000
      6435        66  POPE      C37           -18.6796398256      -23.4870329379        5.3705768714  MEMB      66              0.0000000000
      6436        66  POPE      H7X           -19.3963832212      -22.7545112204        5.7995429248  MEMB      66              0.0000000000
      6437        66  POPE      H7Y           -19.1246389114      -23.8557333577        4.4217056211  MEMB      66              0.0000000000
      6438        66  POPE      C38           -17.2629853957      -23.0277137845        5.0752973135  MEMB      66              0.0000000000
      6439        66  POPE      H8X           -16.7811093021      -23.9911319880        4.8033757464  MEMB      66              0.0000000000
      6440        66  POPE      H8Y           -16.8449620640      -22.6185286174        6.0198322509  MEMB      66              0.0000000000
      6441        66  POPE      C39           -17.1737947107      -21.9148656883        4.0253637599  MEMB      66              0.0000000000
      6442        66  POPE      H9X           -17.4661332708      -22.3860050644        3.0626146210  MEMB      66              0.0000000000
      6443        66  POPE      H9Y           -16.1620514750      -21.4652685069        4.1178781128  MEMB      66              0.0000000000
      6444        66  POPE      C310          -18.1467992324      -20.7978504274        4.3045677937  MEMB      66              0.0000000000
      6445        66  POPE      H10X          -18.2337693823      -20.6242202554        5.3984645737  MEMB      66              0.0000000000
      6446        66  POPE      H10Y          -19.1413803559      -21.1307723880        3.9381084182  MEMB      66              0.0000000000
      6447        66  POPE      C311          -17.6706751000      -19.3582098327        3.7976606446  MEMB      66              0.0000000000
      6448        66  POPE      H11X          -16.6480247896      -19.1906991446        4.1982199232  MEMB      66              0.0000000000
      6449        66  POPE      H11Y          -18.3775108752      -18.6973351744        4.3435071412  MEMB      66              0.0000000000
      6450        66  POPE      C312          -17.6337694932      -19.0765991219        2.3401798596  MEMB      66              0.0000000000
      6451        66  POPE      H12X          -18.6931228163      -19.2097204408        2.0329837379  MEMB      66              0.0000000000
      6452        66  POPE      H12Y          -17.1523538160      -19.9393941581        1.8321003990  MEMB      66              0.0000000000
      6453        66  POPE      C313          -16.9883327127      -17.7252583573        2.0834151824  MEMB      66              0.0000000000
      6454        66  POPE      H13X          -15.9305146697      -17.6941094394        2.4216042181  MEMB      66              0.0000000000
      6455        66  POPE      H13Y          -17.5905797894      -16.9992615885        2.6703973465  MEMB      66              0.0000000000
      6456        66  POPE      C314          -16.8979249084      -17.4488171191        0.5709522676  MEMB      66              0.0000000000
      6457        66  POPE      H14X          -16.2844712863      -18.2885071942        0.1799082137  MEMB      66              0.0000000000
      6458        66  POPE      H14Y          -16.2336351846      -16.5743736101        0.4024642258  MEMB      66              0.0000000000
      6459        66  POPE      C315          -18.1081469494      -17.3296313316       -0.3089947041  MEMB      66              0.0000000000
      6460        66  POPE      H15X          -18.8280458165      -18.1596149211       -0.1440889968  MEMB      66              0.0000000000
      6461        66  POPE      H15Y          -17.7092260958      -17.4335354563       -1.3406853271  MEMB      66              0.0000000000
      6462        66  POPE      C316          -18.8135667746      -16.0246793104       -0.3165560116  MEMB      66              0.0000000000
      6463        66  POPE      H16X          -19.5374867305      -16.0252001794        0.5262133109  MEMB      66              0.0000000000
      6464        66  POPE      H16Y          -19.4444147061      -15.9856350863       -1.2302454069  MEMB      66              0.0000000000
      6465        66  POPE      H16Z          -18.2023503594      -15.0974243859       -0.2860054729  MEMB      66              0.0000000000
      6466        67  POPC      N              -1.8180190220      -30.8916147977       18.0862144003  MEMB      67              0.0000000000
      6467        67  POPC      C12            -0.7390548870      -30.4185747141       19.0753468164  MEMB      67              0.0000000000
      6468        67  POPC      H12A            0.2908090187      -30.5382832882       18.7729395702  MEMB      67              0.0000000000
      6469        67  POPC      H12B           -0.9196536012      -30.9931723648       19.9717962873  MEMB      67              0.0000000000
      6470        67  POPC      C13            -3.1109133259      -31.1199118203       18.8823137256  MEMB      67              0.0000000000
      6471        67  POPC      H13A           -2.8961222339      -31.6840452250       19.7778684813  MEMB      67              0.0000000000
      6472        67  POPC      H13B           -3.5893240309      -30.1877478690       19.1442175914  MEMB      67              0.0000000000
      6473        67  POPC      H13C           -3.8162526603      -31.6431763611       18.2537513813  MEMB      67              0.0000000000
      6474        67  POPC      C14            -1.9810645381      -29.8985226548       17.0663287346  MEMB      67              0.0000000000
      6475        67  POPC      H14A           -2.6575432564      -30.2683472418       16.3100176083  MEMB      67              0.0000000000
      6476        67  POPC      H14B           -2.4204755527      -29.0103552432       17.4958360342  MEMB      67              0.0000000000
      6477        67  POPC      H14C           -1.0633841669      -29.5791962045       16.5948488408  MEMB      67              0.0000000000
      6478        67  POPC      C15            -1.3775710729      -32.1881255972       17.3819095084  MEMB      67              0.0000000000
      6479        67  POPC      H15A           -1.2941923767      -32.9020956441       18.1879460174  MEMB      67              0.0000000000
      6480        67  POPC      H15B           -0.4089312938      -32.1058554142       16.9114113824  MEMB      67              0.0000000000
      6481        67  POPC      H15C           -2.1840936675      -32.4588182781       16.7165924465  MEMB      67              0.0000000000
      6482        67  POPC      C11            -0.8054286129      -28.8960506225       19.6527033386  MEMB      67              0.0000000000
      6483        67  POPC      H11A           -0.3996096206      -28.3286209409       18.7880325307  MEMB      67              0.0000000000
      6484        67  POPC      H11B           -0.1974560749      -28.9333702778       20.5818413985  MEMB      67              0.0000000000
      6485        67  POPC      P              -2.6336780009      -27.0945611266       19.8457498914  MEMB      67              0.0000000000
      6486        67  POPC      O13            -1.5080965082      -26.1020140575       19.7170862584  MEMB      67              0.0000000000
      6487        67  POPC      O14            -3.6180241078      -26.9076211037       20.8789650356  MEMB      67              0.0000000000
      6488        67  POPC      O12            -2.1119723249      -28.5107757992       19.9469443756  MEMB      67              0.0000000000
      6489        67  POPC      O11            -3.4739790455      -27.1805545391       18.4664379150  MEMB      67              0.0000000000
      6490        67  POPC      C1             -3.7374209602      -25.9109259675       17.7752065302  MEMB      67              0.0000000000
      6491        67  POPC      HA             -3.3635577461      -25.0227454470       18.3280923001  MEMB      67              0.0000000000
      6492        67  POPC      HB             -4.8343791665      -25.8277597761       17.6200068582  MEMB      67              0.0000000000
      6493        67  POPC      C2             -3.1842608886      -25.8979790942       16.2426044715  MEMB      67              0.0000000000
      6494        67  POPC      HS             -3.5159109218      -25.0448790679       15.6128829599  MEMB      67              0.0000000000
      6495        67  POPC      O21            -3.5834272638      -27.2040264192       15.7664462918  MEMB      67              0.0000000000
      6496        67  POPC      C21            -3.9231003036      -27.3271414237       14.4702904059  MEMB      67              0.0000000000
      6497        67  POPC      O22            -4.0902328781      -26.3769102974       13.6610920282  MEMB      67              0.0000000000
      6498        67  POPC      C22            -4.1939321226      -28.8297993669       14.1938906266  MEMB      67              0.0000000000
      6499        67  POPC      H2R            -5.2643803013      -29.0763685733       14.3602204809  MEMB      67              0.0000000000
      6500        67  POPC      H2S            -3.6403426768      -29.4924916649       14.8929609337  MEMB      67              0.0000000000
      6501        67  POPC      C3             -1.6846768870      -25.8523376982       16.1874556198  MEMB      67              0.0000000000
      6502        67  POPC      HX             -1.3347362662      -26.8575178112       16.5060075327  MEMB      67              0.0000000000
      6503        67  POPC      HY             -1.3333814711      -25.1136500169       16.9392886134  MEMB      67              0.0000000000
      6504        67  POPC      O31            -1.4162638252      -25.5353661775       14.7343396394  MEMB      67              0.0000000000
      6505        67  POPC      C31            -0.5333389082      -26.2816419898       14.1678712649  MEMB      67              0.0000000000
      6506        67  POPC      O32             0.0960226273      -27.1797530377       14.7425484627  MEMB      67              0.0000000000
      6507        67  POPC      C32            -0.8229866936      -26.0511407508       12.6951089992  MEMB      67              0.0000000000
      6508        67  POPC      H2X            -0.5885431274      -25.0059553447       12.4002451694  MEMB      67              0.0000000000
      6509        67  POPC      H2Y            -1.9259231612      -26.1373669641       12.5930433068  MEMB      67              0.0000000000
      6510        67  POPC      C23            -3.7650305372      -29.2144265807       12.7763888718  MEMB      67              0.0000000000
      6511        67  POPC      H3R            -3.5820976047      -28.2914502461       12.1856511088  MEMB      67              0.0000000000
      6512        67  POPC      H3S            -4.5755825257      -29.8890943018       12.4268900941  MEMB      67              0.0000000000
      6513        67  POPC      C24            -2.4537266968      -29.9799523070       12.6939370654  MEMB      67              0.0000000000
      6514        67  POPC      H4R            -2.4815254705      -31.0279095803       13.0618143045  MEMB      67              0.0000000000
      6515        67  POPC      H4S            -1.6854320053      -29.4878413159       13.3278700584  MEMB      67              0.0000000000
      6516        67  POPC      C25            -1.9011630158      -30.1285852490       11.2566945117  MEMB      67              0.0000000000
      6517        67  POPC      H5R            -0.8695353082      -30.5383732541       11.2104431924  MEMB      67              0.0000000000
      6518        67  POPC      H5S            -1.7587201351      -29.1290337537       10.7930913744  MEMB      67              0.0000000000
      6519        67  POPC      C26            -2.8337584480      -30.9993377058       10.3522567514  MEMB      67              0.0000000000
      6520        67  POPC      H6R            -3.9304377642      -30.8789729828       10.4831293530  MEMB      67              0.0000000000
      6521        67  POPC      H6S            -2.7017057701      -32.0880949120       10.5297133891  MEMB      67              0.0000000000
      6522        67  POPC      C27            -2.6599838213      -30.7291062421        8.8359717431  MEMB      67              0.0000000000
      6523        67  POPC      H7R            -1.5998827447      -30.8935618279        8.5470758089  MEMB      67              0.0000000000
      6524        67  POPC      H7S            -2.8063551168      -29.6326254165        8.7328887642  MEMB      67              0.0000000000
      6525        67  POPC      C28            -3.6015286659      -31.5654031416        7.9339066587  MEMB      67              0.0000000000
      6526        67  POPC      H8R            -3.6620036095      -32.5754278132        8.3927249429  MEMB      67              0.0000000000
      6527        67  POPC      H8S            -3.2566532664      -31.5653496003        6.8777898550  MEMB      67              0.0000000000
      6528        67  POPC      C29            -4.9390451945      -30.8793893112        7.8778461915  MEMB      67              0.0000000000
      6529        67  POPC      H91            -5.6900848951      -31.3268737723        8.5454516850  MEMB      67              0.0000000000
      6530        67  POPC      C210           -5.3658622218      -29.7811910147        7.1644418078  MEMB      67              0.0000000000
      6531        67  POPC      H101           -6.4166844818      -29.4803132987        7.2879136580  MEMB      67              0.0000000000
      6532        67  POPC      C211           -4.6569015291      -28.8554106561        6.1936762910  MEMB      67              0.0000000000
      6533        67  POPC      H11R           -3.5865291952      -29.1413815313        6.1109445182  MEMB      67              0.0000000000
      6534        67  POPC      H11S           -4.7373678876      -27.8595602203        6.6796062739  MEMB      67              0.0000000000
      6535        67  POPC      C212           -5.3335633008      -28.5841331515        4.8007246020  MEMB      67              0.0000000000
      6536        67  POPC      H12R           -4.7736796224      -27.7162171073        4.3913678995  MEMB      67              0.0000000000
      6537        67  POPC      H12S           -6.4095280289      -28.3908135871        4.9988364228  MEMB      67              0.0000000000
      6538        67  POPC      C213           -5.2371340570      -29.8353393132        3.8068649510  MEMB      67              0.0000000000
      6539        67  POPC      H13R           -5.9105217740      -29.7217006362        2.9305347271  MEMB      67              0.0000000000
      6540        67  POPC      H13S           -5.5642550449      -30.7425279679        4.3585183238  MEMB      67              0.0000000000
      6541        67  POPC      C214           -3.8273739141      -30.2243433079        3.3309506450  MEMB      67              0.0000000000
      6542        67  POPC      H14R           -3.3568166645      -30.4970622237        4.2997236810  MEMB      67              0.0000000000
      6543        67  POPC      H14S           -3.2937950445      -29.3404736101        2.9205982844  MEMB      67              0.0000000000
      6544        67  POPC      C215           -3.8416546324      -31.4204677582        2.3822613947  MEMB      67              0.0000000000
      6545        67  POPC      H15R           -4.1903869783      -30.9017917359        1.4637405082  MEMB      67              0.0000000000
      6546        67  POPC      H15S           -4.5764725589      -32.1159322423        2.8412738892  MEMB      67              0.0000000000
      6547        67  POPC      C216           -2.4409300619      -32.0076297986        2.0133519382  MEMB      67              0.0000000000
      6548        67  POPC      H16R           -2.5682395176      -32.7274313477        1.1766934017  MEMB      67              0.0000000000
      6549        67  POPC      H16S           -1.9421575566      -32.3770597858        2.9348013992  MEMB      67              0.0000000000
      6550        67  POPC      C217           -1.2849650919      -31.1010168725        1.5593421345  MEMB      67              0.0000000000
      6551        67  POPC      H17R           -0.4387459670      -31.7283740293        1.2062741615  MEMB      67              0.0000000000
      6552        67  POPC      H17S           -0.9132288038      -30.4463912301        2.3764080240  MEMB      67              0.0000000000
      6553        67  POPC      C218           -1.5267718436      -30.0442250901        0.4138121921  MEMB      67              0.0000000000
      6554        67  POPC      H18R           -1.7196448369      -30.5391375968       -0.5619864878  MEMB      67              0.0000000000
      6555        67  POPC      H18S           -0.6042616387      -29.4412582588        0.2733588573  MEMB      67              0.0000000000
      6556        67  POPC      H18T           -2.3296414129      -29.3156074071        0.6563771418  MEMB      67              0.0000000000
      6557        67  POPC      C33            -0.0393742636      -27.0372424428       11.8552076294  MEMB      67              0.0000000000
      6558        67  POPC      H3X            -0.4392377627      -28.0504019224       12.0741553546  MEMB      67              0.0000000000
      6559        67  POPC      H3Y             1.0457423524      -27.0153161756       12.0926145858  MEMB      67              0.0000000000
      6560        67  POPC      C34            -0.1413853131      -26.8728412354       10.3051562711  MEMB      67              0.0000000000
      6561        67  POPC      H4X            -0.0233137850      -25.8346362858        9.9276508916  MEMB      67              0.0000000000
      6562        67  POPC      H4Y            -1.0774241287      -27.3719427385        9.9749284049  MEMB      67              0.0000000000
      6563        67  POPC      C35             0.9098330594      -27.8201200388        9.6032879047  MEMB      67              0.0000000000
      6564        67  POPC      H5X             0.6360720410      -28.8757000808        9.8157186654  MEMB      67              0.0000000000
      6565        67  POPC      H5Y             1.8945568675      -27.5932761411       10.0650032064  MEMB      67              0.0000000000
      6566        67  POPC      C36             1.0281875787      -27.6727363195        8.0738690512  MEMB      67              0.0000000000
      6567        67  POPC      H6X             2.0177214891      -27.9859884161        7.6776155232  MEMB      67              0.0000000000
      6568        67  POPC      H6Y             0.9037459828      -26.5741377969        7.9647052921  MEMB      67              0.0000000000
      6569        67  POPC      C37            -0.0552884155      -28.4530149052        7.3767159137  MEMB      67              0.0000000000
      6570        67  POPC      H7X            -1.0227269106      -27.9155433797        7.2792095645  MEMB      67              0.0000000000
      6571        67  POPC      H7Y            -0.2583831599      -29.3697702000        7.9705457546  MEMB      67              0.0000000000
      6572        67  POPC      C38             0.3096714811      -28.9828123037        5.9939320352  MEMB      67              0.0000000000
      6573        67  POPC      H8X            -0.4517679812      -29.6873063487        5.5961643206  MEMB      67              0.0000000000
      6574        67  POPC      H8Y             1.2287329766      -29.5797675087        6.1763927495  MEMB      67              0.0000000000
      6575        67  POPC      C39             0.5057383320      -27.8260190109        5.0204214656  MEMB      67              0.0000000000
      6576        67  POPC      H9X             1.4145877261      -27.9606647751        4.3957743365  MEMB      67              0.0000000000
      6577        67  POPC      H9Y             0.8132096906      -26.9726929217        5.6619952576  MEMB      67              0.0000000000
      6578        67  POPC      C310           -0.6515447818      -27.6060738606        3.9941345968  MEMB      67              0.0000000000
      6579        67  POPC      H10X           -1.6128726990      -27.3389750051        4.4828347156  MEMB      67              0.0000000000
      6580        67  POPC      H10Y           -0.6601919867      -28.5046226792        3.3407921794  MEMB      67              0.0000000000
      6581        67  POPC      C311           -0.3524642530      -26.3798658052        3.1958727962  MEMB      67              0.0000000000
      6582        67  POPC      H11X            0.6832515524      -26.4171283146        2.7955912912  MEMB      67              0.0000000000
      6583        67  POPC      H11Y           -0.3220320736      -25.5753935616        3.9615229786  MEMB      67              0.0000000000
      6584        67  POPC      C312           -1.3342626915      -25.9522583888        2.1325485135  MEMB      67              0.0000000000
      6585        67  POPC      H12X           -1.3758633104      -26.5201128970        1.1785406761  MEMB      67              0.0000000000
      6586        67  POPC      H12Y           -1.1017788259      -24.9542230841        1.7033654496  MEMB      67              0.0000000000
      6587        67  POPC      C313           -2.8671770647      -25.8825408653        2.5468450377  MEMB      67              0.0000000000
      6588        67  POPC      H13X           -2.8349832236      -25.2311608389        3.4462827706  MEMB      67              0.0000000000
      6589        67  POPC      H13Y           -3.2274620304      -26.8866227232        2.8572253621  MEMB      67              0.0000000000
      6590        67  POPC      C314           -3.7946350022      -25.3661615738        1.4163665934  MEMB      67              0.0000000000
      6591        67  POPC      H14X           -3.3697830427      -24.3790130152        1.1346595167  MEMB      67              0.0000000000
      6592        67  POPC      H14Y           -4.7980133571      -25.2264711080        1.8724796527  MEMB      67              0.0000000000
      6593        67  POPC      C315           -3.7446878111      -26.2740096568        0.1399875753  MEMB      67              0.0000000000
      6594        67  POPC      H15X           -3.6044893377      -27.3481547625        0.3867201590  MEMB      67              0.0000000000
      6595        67  POPC      H15Y           -2.7537349110      -26.1182222582       -0.3375723985  MEMB      67              0.0000000000
      6596        67  POPC      C316           -4.9334480831      -25.9527635234       -0.8156675959  MEMB      67              0.0000000000
      6597        67  POPC      H16X           -4.7810255863      -26.4806988223       -1.7812614484  MEMB      67              0.0000000000
      6598        67  POPC      H16Y           -5.0372420797      -24.8589816974       -0.9805601611  MEMB      67              0.0000000000
      6599        67  POPC      H16Z           -5.9134133370      -26.3400523479       -0.4635357054  MEMB      67              0.0000000000
      6600        68  POPC      N              18.8675162607       29.4826380372       20.0075139143  MEMB      68              0.0000000000
      6601        68  POPC      C12            19.2014979998       29.2481436475       18.5671286518  MEMB      68              0.0000000000
      6602        68  POPC      H12A           19.4703492557       30.2405541323       18.2366131455  MEMB      68              0.0000000000
      6603        68  POPC      H12B           18.2649807671       29.0628251867       18.0621608333  MEMB      68              0.0000000000
      6604        68  POPC      C13            20.0533184283       29.5904220223       21.0068573994  MEMB      68              0.0000000000
      6605        68  POPC      H13A           20.8264996252       30.1711920093       20.5259238301  MEMB      68              0.0000000000
      6606        68  POPC      H13B           19.5941654416       29.9205804355       21.9269519202  MEMB      68              0.0000000000
      6607        68  POPC      H13C           20.3147911807       28.5685919763       21.2390113299  MEMB      68              0.0000000000
      6608        68  POPC      C14            18.1569546822       30.8420530052       19.9496461553  MEMB      68              0.0000000000
      6609        68  POPC      H14A           17.4348805343       30.9346227156       19.1518744484  MEMB      68              0.0000000000
      6610        68  POPC      H14B           17.5659351797       31.1097704465       20.8130253063  MEMB      68              0.0000000000
      6611        68  POPC      H14C           18.8867909838       31.6209360456       19.7850855028  MEMB      68              0.0000000000
      6612        68  POPC      C15            17.9362382047       28.4072299402       20.2968219504  MEMB      68              0.0000000000
      6613        68  POPC      H15A           18.4904051986       27.4856122238       20.3964211251  MEMB      68              0.0000000000
      6614        68  POPC      H15B           17.2069602705       28.2896652383       19.5089564718  MEMB      68              0.0000000000
      6615        68  POPC      H15C           17.4243481242       28.5983030234       21.2284116566  MEMB      68              0.0000000000
      6616        68  POPC      C11            20.2018487431       28.0949543475       18.1204150251  MEMB      68              0.0000000000
      6617        68  POPC      H11A           21.2020044658       28.4197670464       18.4788928558  MEMB      68              0.0000000000
      6618        68  POPC      H11B           20.2653567005       28.0218402270       17.0136439613  MEMB      68              0.0000000000
      6619        68  POPC      P              20.4016103569       25.3809361859       18.1815642915  MEMB      68              0.0000000000
      6620        68  POPC      O13            19.8833616712       24.9063729611       16.9037560936  MEMB      68              0.0000000000
      6621        68  POPC      O14            20.2446175297       24.4070145951       19.2831640718  MEMB      68              0.0000000000
      6622        68  POPC      O12            19.8565514135       26.8142700335       18.6657645034  MEMB      68              0.0000000000
      6623        68  POPC      O11            21.8967520317       25.6901674812       18.0173679435  MEMB      68              0.0000000000
      6624        68  POPC      C1             22.6458693160       25.2153718438       16.9132677346  MEMB      68              0.0000000000
      6625        68  POPC      HA             22.1462035717       24.2918552439       16.5502633739  MEMB      68              0.0000000000
      6626        68  POPC      HB             23.6713490959       24.9613582353       17.2570546383  MEMB      68              0.0000000000
      6627        68  POPC      C2             22.8407656582       26.3289626811       15.8105443982  MEMB      68              0.0000000000
      6628        68  POPC      HS             23.3072233919       27.2231194396       16.2766150843  MEMB      68              0.0000000000
      6629        68  POPC      O21            21.5468397151       26.6091729055       15.2710832025  MEMB      68              0.0000000000
      6630        68  POPC      C21            21.2951900935       27.7831246560       14.6926294009  MEMB      68              0.0000000000
      6631        68  POPC      O22            22.0477176429       28.7591085805       14.5814847913  MEMB      68              0.0000000000
      6632        68  POPC      C22            19.8563004199       27.7473701171       14.1538799653  MEMB      68              0.0000000000
      6633        68  POPC      H2R            19.1687249810       28.3727062460       14.7625799953  MEMB      68              0.0000000000
      6634        68  POPC      H2S            19.5313132373       26.6878978487       14.2327655545  MEMB      68              0.0000000000
      6635        68  POPC      C3             23.7068387395       25.8533329909       14.6554900222  MEMB      68              0.0000000000
      6636        68  POPC      HX             24.6943165119       25.4698354928       14.9903606264  MEMB      68              0.0000000000
      6637        68  POPC      HY             23.8798802618       26.7955392373       14.0927955562  MEMB      68              0.0000000000
      6638        68  POPC      O31            22.9722325609       24.7684201082       14.0138103300  MEMB      68              0.0000000000
      6639        68  POPC      C31            22.6823011088       25.0637156114       12.7583903203  MEMB      68              0.0000000000
      6640        68  POPC      O32            22.8385446973       26.0876900082       12.1658057075  MEMB      68              0.0000000000
      6641        68  POPC      C32            22.0079815534       23.8675866546       12.1085508467  MEMB      68              0.0000000000
      6642        68  POPC      H2X            21.1320630576       23.4051900991       12.6118173906  MEMB      68              0.0000000000
      6643        68  POPC      H2Y            22.8672537982       23.1938694775       11.9034236284  MEMB      68              0.0000000000
      6644        68  POPC      C23            19.6872440339       28.3097284714       12.6451892837  MEMB      68              0.0000000000
      6645        68  POPC      H3R            20.4578322490       27.7438268721       12.0792653575  MEMB      68              0.0000000000
      6646        68  POPC      H3S            19.8499828457       29.4009947547       12.5149009636  MEMB      68              0.0000000000
      6647        68  POPC      C24            18.2200861406       27.9542172263       11.9968934250  MEMB      68              0.0000000000
      6648        68  POPC      H4R            17.4812196412       28.2395443665       12.7759863113  MEMB      68              0.0000000000
      6649        68  POPC      H4S            18.2201208459       26.8433480982       11.9798383893  MEMB      68              0.0000000000
      6650        68  POPC      C25            17.8767076595       28.6899404431       10.7403806697  MEMB      68              0.0000000000
      6651        68  POPC      H5R            17.6235070226       29.7456047569       10.9765658149  MEMB      68              0.0000000000
      6652        68  POPC      H5S            17.0405365581       28.2117316580       10.1867965636  MEMB      68              0.0000000000
      6653        68  POPC      C26            19.0210639819       28.7866016187        9.6855313897  MEMB      68              0.0000000000
      6654        68  POPC      H6R            19.3894050614       27.7967889713        9.3406881054  MEMB      68              0.0000000000
      6655        68  POPC      H6S            19.9230704611       29.2335606193       10.1555665858  MEMB      68              0.0000000000
      6656        68  POPC      C27            18.7022870081       29.7083473758        8.4572450768  MEMB      68              0.0000000000
      6657        68  POPC      H7R            18.5074707805       30.7891266976        8.6254239818  MEMB      68              0.0000000000
      6658        68  POPC      H7S            17.7705249096       29.3647029314        7.9591998548  MEMB      68              0.0000000000
      6659        68  POPC      C28            19.7062511194       29.6790076781        7.2763422372  MEMB      68              0.0000000000
      6660        68  POPC      H8R            19.2217227363       30.4333863646        6.6202429954  MEMB      68              0.0000000000
      6661        68  POPC      H8S            19.6748545960       28.7112234356        6.7316136193  MEMB      68              0.0000000000
      6662        68  POPC      C29            21.1359334004       30.1192369229        7.6224046983  MEMB      68              0.0000000000
      6663        68  POPC      H91            21.3669729370       31.0923975200        8.0802030330  MEMB      68              0.0000000000
      6664        68  POPC      C210           22.1201420752       29.1994625675        7.6913932009  MEMB      68              0.0000000000
      6665        68  POPC      H101           23.0627714053       29.6370627810        8.0518870120  MEMB      68              0.0000000000
      6666        68  POPC      C211           22.0786028741       27.7317824181        7.4904189850  MEMB      68              0.0000000000
      6667        68  POPC      H11R           21.0902877557       27.2556357426        7.6660282069  MEMB      68              0.0000000000
      6668        68  POPC      H11S           22.6794489118       27.2010974492        8.2596256308  MEMB      68              0.0000000000
      6669        68  POPC      C212           22.4429812087       27.2741538221        6.0407919039  MEMB      68              0.0000000000
      6670        68  POPC      H12R           21.6757142160       27.7477697592        5.3917073676  MEMB      68              0.0000000000
      6671        68  POPC      H12S           22.4673652308       26.1634533031        6.0323689693  MEMB      68              0.0000000000
      6672        68  POPC      C213           23.7993183072       27.7775478151        5.5570426426  MEMB      68              0.0000000000
      6673        68  POPC      H13R           24.5794927062       27.5504995864        6.3147349558  MEMB      68              0.0000000000
      6674        68  POPC      H13S           23.8742919023       28.8805685942        5.4472925067  MEMB      68              0.0000000000
      6675        68  POPC      C214           24.1508409089       27.1038682414        4.1817799163  MEMB      68              0.0000000000
      6676        68  POPC      H14R           24.1671784373       26.0008926891        4.3140636012  MEMB      68              0.0000000000
      6677        68  POPC      H14S           25.1545698679       27.3806027869        3.7941370293  MEMB      68              0.0000000000
      6678        68  POPC      C215           23.1179614035       27.3456126493        3.1151349282  MEMB      68              0.0000000000
      6679        68  POPC      H15R           22.0745496242       27.0440049723        3.3488982201  MEMB      68              0.0000000000
      6680        68  POPC      H15S           23.4230762696       26.6475600156        2.3064636120  MEMB      68              0.0000000000
      6681        68  POPC      C216           23.1193090934       28.7954002526        2.4509142136  MEMB      68              0.0000000000
      6682        68  POPC      H16R           24.1238706253       29.2613042682        2.3608548991  MEMB      68              0.0000000000
      6683        68  POPC      H16S           22.5640127478       29.5569418156        3.0391500073  MEMB      68              0.0000000000
      6684        68  POPC      C217           22.4075128589       28.8239742458        1.0876383424  MEMB      68              0.0000000000
      6685        68  POPC      H17R           21.4109242484       28.4332487772        1.3850705979  MEMB      68              0.0000000000
      6686        68  POPC      H17S           22.8213231824       28.1670936276        0.2929110490  MEMB      68              0.0000000000
      6687        68  POPC      C218           22.4613479327       30.2993794843        0.6056771281  MEMB      68              0.0000000000
      6688        68  POPC      H18R           23.5279759887       30.5662713901        0.4463219719  MEMB      68              0.0000000000
      6689        68  POPC      H18S           22.0882427287       31.1112904088        1.2659146440  MEMB      68              0.0000000000
      6690        68  POPC      H18T           21.9479086817       30.3698696885       -0.3770395044  MEMB      68              0.0000000000
      6691        68  POPC      C33            21.4285124765       24.3254717528       10.7026276140  MEMB      68              0.0000000000
      6692        68  POPC      H3X            22.2090199462       24.8925642686       10.1516874613  MEMB      68              0.0000000000
      6693        68  POPC      H3Y            20.5413124419       24.9266192030       10.9955763277  MEMB      68              0.0000000000
      6694        68  POPC      C34            20.9682953223       23.1795758157        9.8116338043  MEMB      68              0.0000000000
      6695        68  POPC      H4X            20.1806948180       22.6005724968       10.3396133806  MEMB      68              0.0000000000
      6696        68  POPC      H4Y            21.8358047193       22.5703589455        9.4790642579  MEMB      68              0.0000000000
      6697        68  POPC      C35            20.4510131569       23.7279282198        8.4310488411  MEMB      68              0.0000000000
      6698        68  POPC      H5X            20.4161297786       22.7867242073        7.8417790110  MEMB      68              0.0000000000
      6699        68  POPC      H5Y            21.3135475118       24.2613670355        7.9773982537  MEMB      68              0.0000000000
      6700        68  POPC      C36            19.2391480639       24.6429033858        8.2804884575  MEMB      68              0.0000000000
      6701        68  POPC      H6X            19.3811532246       25.5104413650        8.9598509841  MEMB      68              0.0000000000
      6702        68  POPC      H6Y            18.4269549273       24.0122981162        8.7012026409  MEMB      68              0.0000000000
      6703        68  POPC      C37            18.7667562291       25.0159582989        6.7638234171  MEMB      68              0.0000000000
      6704        68  POPC      H7X            18.3218211168       24.0877637725        6.3457223321  MEMB      68              0.0000000000
      6705        68  POPC      H7Y            19.6100399437       25.3736230992        6.1351191812  MEMB      68              0.0000000000
      6706        68  POPC      C38            17.5885741245       26.0466281658        6.8529471554  MEMB      68              0.0000000000
      6707        68  POPC      H8X            17.9735220776       26.8983662950        7.4535120363  MEMB      68              0.0000000000
      6708        68  POPC      H8Y            16.7774623617       25.7073259878        7.5321324151  MEMB      68              0.0000000000
      6709        68  POPC      C39            17.1086233536       26.4080070967        5.4539514796  MEMB      68              0.0000000000
      6710        68  POPC      H9X            16.2285060207       27.0820814286        5.5270138252  MEMB      68              0.0000000000
      6711        68  POPC      H9Y            16.9050284802       25.4566600944        4.9174723569  MEMB      68              0.0000000000
      6712        68  POPC      C310           18.1651056879       27.2506581477        4.6658443478  MEMB      68              0.0000000000
      6713        68  POPC      H10X           19.1572048463       27.0537625397        5.1255098680  MEMB      68              0.0000000000
      6714        68  POPC      H10Y           17.8133800272       28.2939974572        4.8143463963  MEMB      68              0.0000000000
      6715        68  POPC      C311           18.3599653366       26.9196253251        3.2648669833  MEMB      68              0.0000000000
      6716        68  POPC      H11X           18.8262865749       27.8244496781        2.8197167667  MEMB      68              0.0000000000
      6717        68  POPC      H11Y           17.3917155249       26.7404815136        2.7503567840  MEMB      68              0.0000000000
      6718        68  POPC      C312           19.3037696448       25.7344255052        3.1567178443  MEMB      68              0.0000000000
      6719        68  POPC      H12X           18.7160539640       24.8481266475        3.4782541147  MEMB      68              0.0000000000
      6720        68  POPC      H12Y           20.1749145841       25.8289072372        3.8397259599  MEMB      68              0.0000000000
      6721        68  POPC      C313           19.8401621405       25.4359233914        1.7480850316  MEMB      68              0.0000000000
      6722        68  POPC      H13X           20.5049724204       24.5618185598        1.9162778573  MEMB      68              0.0000000000
      6723        68  POPC      H13Y           20.4117680395       26.2855029964        1.3170362479  MEMB      68              0.0000000000
      6724        68  POPC      C314           18.8210795395       24.9395907165        0.7589190507  MEMB      68              0.0000000000
      6725        68  POPC      H14X           17.9322133655       25.5861318271        0.5969854351  MEMB      68              0.0000000000
      6726        68  POPC      H14Y           18.4355885369       23.9049165091        0.8820715489  MEMB      68              0.0000000000
      6727        68  POPC      C315           19.4734365360       24.7009653680       -0.5835289078  MEMB      68              0.0000000000
      6728        68  POPC      H15X           20.1416186625       23.8137672609       -0.5564485838  MEMB      68              0.0000000000
      6729        68  POPC      H15Y           20.0865313633       25.5703884036       -0.9037458579  MEMB      68              0.0000000000
      6730        68  POPC      C316           18.4847263508       24.4301098827       -1.6853269330  MEMB      68              0.0000000000
      6731        68  POPC      H16X           17.7661286362       23.6207962230       -1.4344293775  MEMB      68              0.0000000000
      6732        68  POPC      H16Y           19.1183775194       24.2303839999       -2.5757854723  MEMB      68              0.0000000000
      6733        68  POPC      H16Z           17.7855563205       25.2743444654       -1.8662972137  MEMB      68              0.0000000000
      6734        69  POPE      N             -11.9214505930       28.6902455192       20.9280234473  MEMB      69              0.0000000000
      6735        69  POPE      HN1           -11.0839051008       28.0895932870       20.7889755845  MEMB      69              0.0000000000
      6736        69  POPE      HN2           -11.5977278521       29.6157171595       21.2748749844  MEMB      69              0.0000000000
      6737        69  POPE      HN3           -12.5042078896       28.2407145908       21.6628131237  MEMB      69              0.0000000000
      6738        69  POPE      C12           -12.7202035240       28.8072373174       19.7682312323  MEMB      69              0.0000000000
      6739        69  POPE      H12A          -13.4177699474       29.6500671652       19.9615191229  MEMB      69              0.0000000000
      6740        69  POPE      H12B          -13.2730430798       27.8496783840       19.6597389282  MEMB      69              0.0000000000
      6741        69  POPE      C11           -11.9329328760       28.9649809485       18.5125507479  MEMB      69              0.0000000000
      6742        69  POPE      H11A          -11.4229537060       29.9519604502       18.5018813234  MEMB      69              0.0000000000
      6743        69  POPE      H11B          -12.7162637851       28.9345548920       17.7252845398  MEMB      69              0.0000000000
      6744        69  POPE      P              -9.4646898243       28.0628175264       18.6526118411  MEMB      69              0.0000000000
      6745        69  POPE      O13            -9.0849280212       26.7951537682       19.2976005973  MEMB      69              0.0000000000
      6746        69  POPE      O14            -9.1207997982       29.2914781911       19.3883309183  MEMB      69              0.0000000000
      6747        69  POPE      O11            -8.7728846391       28.1625309834       17.1584330849  MEMB      69              0.0000000000
      6748        69  POPE      O12           -11.0393995239       27.9257853423       18.2942181460  MEMB      69              0.0000000000
      6749        69  POPE      C1             -8.8620786990       29.4122177852       16.4855336784  MEMB      69              0.0000000000
      6750        69  POPE      HA             -7.9133097230       29.9704269241       16.6357372372  MEMB      69              0.0000000000
      6751        69  POPE      HB             -9.7699810770       30.0119430644       16.7099527530  MEMB      69              0.0000000000
      6752        69  POPE      C2             -8.8630930794       29.2615753611       14.8781144020  MEMB      69              0.0000000000
      6753        69  POPE      HS             -9.1617799578       30.1932795245       14.3517736107  MEMB      69              0.0000000000
      6754        69  POPE      O21            -9.8308181152       28.2480949783       14.5036897416  MEMB      69              0.0000000000
      6755        69  POPE      C21           -11.1129370886       28.5573146710       14.5430962550  MEMB      69              0.0000000000
      6756        69  POPE      O22           -11.5286163015       29.6459358255       14.8649405800  MEMB      69              0.0000000000
      6757        69  POPE      C22           -11.9901108699       27.3584478675       14.2025029434  MEMB      69              0.0000000000
      6758        69  POPE      H2R           -12.8621001517       27.0584186035       14.8221298191  MEMB      69              0.0000000000
      6759        69  POPE      H2S           -11.2622250822       26.5514907506       13.9715842277  MEMB      69              0.0000000000
      6760        69  POPE      C3             -7.5070308192       28.8043550918       14.2433276208  MEMB      69              0.0000000000
      6761        69  POPE      HX             -7.1990914674       27.8741187647       14.7669257887  MEMB      69              0.0000000000
      6762        69  POPE      HY             -6.6931471235       29.5234235744       14.4775384554  MEMB      69              0.0000000000
      6763        69  POPE      O31            -7.6728346250       28.6746801440       12.7889505813  MEMB      69              0.0000000000
      6764        69  POPE      C31            -7.0501961990       27.7406582052       12.1248927313  MEMB      69              0.0000000000
      6765        69  POPE      O32            -6.3294775065       26.8846115387       12.5480405282  MEMB      69              0.0000000000
      6766        69  POPE      C32            -7.4842097544       27.8288032959       10.7044721718  MEMB      69              0.0000000000
      6767        69  POPE      H2X            -7.3819823664       28.8951469285       10.4098850102  MEMB      69              0.0000000000
      6768        69  POPE      H2Y            -8.5488644624       27.5151987007       10.6546367862  MEMB      69              0.0000000000
      6769        69  POPE      C23           -12.6448448269       27.8298492113       12.8864608507  MEMB      69              0.0000000000
      6770        69  POPE      H3R           -13.5187396498       28.4726656085       13.1260760527  MEMB      69              0.0000000000
      6771        69  POPE      H3S           -13.0612325705       26.8155780355       12.7070270706  MEMB      69              0.0000000000
      6772        69  POPE      C24           -11.6338530196       28.2453747672       11.7240339500  MEMB      69              0.0000000000
      6773        69  POPE      H4R           -11.0309127202       27.3409289901       11.4943348202  MEMB      69              0.0000000000
      6774        69  POPE      H4S           -10.9846824909       29.0565776586       12.1175417478  MEMB      69              0.0000000000
      6775        69  POPE      C25           -12.2241364547       28.7873615822       10.3761917519  MEMB      69              0.0000000000
      6776        69  POPE      H5R           -12.8279832677       29.7130703127       10.4891230035  MEMB      69              0.0000000000
      6777        69  POPE      H5S           -12.8276847580       27.9374340851        9.9919077019  MEMB      69              0.0000000000
      6778        69  POPE      C26           -11.1145565939       29.1558146606        9.3755359583  MEMB      69              0.0000000000
      6779        69  POPE      H6R           -10.3187767678       28.3849592864        9.4582244220  MEMB      69              0.0000000000
      6780        69  POPE      H6S           -10.5926935622       30.1040617981        9.6261502470  MEMB      69              0.0000000000
      6781        69  POPE      C27           -11.7378534877       29.1086077028        7.9808016800  MEMB      69              0.0000000000
      6782        69  POPE      H7R           -12.7330759639       29.5895602369        8.0927725635  MEMB      69              0.0000000000
      6783        69  POPE      H7S           -11.8114107467       28.0438042073        7.6724131310  MEMB      69              0.0000000000
      6784        69  POPE      C28           -10.9334336922       29.9090723664        6.9997777901  MEMB      69              0.0000000000
      6785        69  POPE      H8R           -11.3951909987       30.9095325796        7.1418365206  MEMB      69              0.0000000000
      6786        69  POPE      H8S           -11.3980731565       29.5793897517        6.0459748305  MEMB      69              0.0000000000
      6787        69  POPE      C29            -9.4528473088       29.9528413577        6.9912161615  MEMB      69              0.0000000000
      6788        69  POPE      H91            -8.9539289723       29.9695114426        7.9714207638  MEMB      69              0.0000000000
      6789        69  POPE      C210           -8.6231567537       29.9577590565        5.9024587784  MEMB      69              0.0000000000
      6790        69  POPE      H101           -7.5308784965       30.0495005805        5.9947178903  MEMB      69              0.0000000000
      6791        69  POPE      C211           -9.0929924866       29.8465631465        4.4576392741  MEMB      69              0.0000000000
      6792        69  POPE      H11R           -8.4126372572       30.3672570327        3.7503099464  MEMB      69              0.0000000000
      6793        69  POPE      H11S          -10.1263652636       30.2278814412        4.3125259032  MEMB      69              0.0000000000
      6794        69  POPE      C212           -9.1762360480       28.3385589971        4.0938029875  MEMB      69              0.0000000000
      6795        69  POPE      H12R          -10.0540074116       27.9348936861        4.6423397248  MEMB      69              0.0000000000
      6796        69  POPE      H12S           -8.2310448302       27.7875463377        4.2869859553  MEMB      69              0.0000000000
      6797        69  POPE      C213           -9.5472887511       28.1726281109        2.5786751872  MEMB      69              0.0000000000
      6798        69  POPE      H13R           -8.7517841069       28.6142200377        1.9411103422  MEMB      69              0.0000000000
      6799        69  POPE      H13S          -10.5502011750       28.6277844947        2.4326610884  MEMB      69              0.0000000000
      6800        69  POPE      C214           -9.7374880070       26.7199016542        2.2999002706  MEMB      69              0.0000000000
      6801        69  POPE      H14R          -10.3404045145       26.2944879959        3.1304640050  MEMB      69              0.0000000000
      6802        69  POPE      H14S           -8.7436653670       26.2283326045        2.2292088946  MEMB      69              0.0000000000
      6803        69  POPE      C215          -10.3135755618       26.4013189904        0.9548100364  MEMB      69              0.0000000000
      6804        69  POPE      H15R           -9.8295174062       27.1264105241        0.2661499701  MEMB      69              0.0000000000
      6805        69  POPE      H15S          -11.3705760309       26.6784065410        0.7540763867  MEMB      69              0.0000000000
      6806        69  POPE      C216          -10.1002784997       24.9342617321        0.5036888916  MEMB      69              0.0000000000
      6807        69  POPE      H16R           -9.0393019668       24.7113485756        0.2608719773  MEMB      69              0.0000000000
      6808        69  POPE      H16S          -10.5275875215       24.9053179743       -0.5214399471  MEMB      69              0.0000000000
      6809        69  POPE      C217          -10.7128630291       23.9650608476        1.4606328027  MEMB      69              0.0000000000
      6810        69  POPE      H17R          -11.6941074933       24.3264802230        1.8359390233  MEMB      69              0.0000000000
      6811        69  POPE      H17S          -10.0608733559       23.9259822740        2.3593549225  MEMB      69              0.0000000000
      6812        69  POPE      C218          -10.8905560226       22.6203300365        0.7407483172  MEMB      69              0.0000000000
      6813        69  POPE      H18R          -11.4447041473       21.8987049692        1.3783205812  MEMB      69              0.0000000000
      6814        69  POPE      H18S           -9.9705351516       22.0736413162        0.4423957815  MEMB      69              0.0000000000
      6815        69  POPE      H18T          -11.4670846617       22.7850956863       -0.1945539641  MEMB      69              0.0000000000
      6816        69  POPE      C33            -6.6881879747       26.8890598127        9.8402838357  MEMB      69              0.0000000000
      6817        69  POPE      H3X            -6.6154214749       25.8962250438       10.3335433972  MEMB      69              0.0000000000
      6818        69  POPE      H3Y            -5.6936658489       27.3799507567        9.7749166352  MEMB      69              0.0000000000
      6819        69  POPE      C34            -7.1200003201       26.5746632147        8.3341948613  MEMB      69              0.0000000000
      6820        69  POPE      H4X            -6.3129057764       26.3307566959        7.6107110746  MEMB      69              0.0000000000
      6821        69  POPE      H4Y            -7.6681846292       27.5155863195        8.1140160184  MEMB      69              0.0000000000
      6822        69  POPE      C35            -8.1405822335       25.4964917069        8.1093472056  MEMB      69              0.0000000000
      6823        69  POPE      H5X            -8.9032149921       25.8951622218        8.8120377433  MEMB      69              0.0000000000
      6824        69  POPE      H5Y            -7.8546508541       24.5094384937        8.5315913044  MEMB      69              0.0000000000
      6825        69  POPE      C36            -8.8157269419       25.5432931573        6.7555641507  MEMB      69              0.0000000000
      6826        69  POPE      H6X            -8.1499971626       25.5435353615        5.8661123064  MEMB      69              0.0000000000
      6827        69  POPE      H6Y            -9.3409009055       26.5223298063        6.7563234951  MEMB      69              0.0000000000
      6828        69  POPE      C37            -9.8961732348       24.4791325277        6.6995205134  MEMB      69              0.0000000000
      6829        69  POPE      H7X           -10.4333369425       24.5523201067        7.6692733706  MEMB      69              0.0000000000
      6830        69  POPE      H7Y            -9.5417750462       23.4264233293        6.6765885600  MEMB      69              0.0000000000
      6831        69  POPE      C38           -10.9053730303       24.7024462195        5.5693263886  MEMB      69              0.0000000000
      6832        69  POPE      H8X           -10.4990551230       24.3165720379        4.6099888958  MEMB      69              0.0000000000
      6833        69  POPE      H8Y           -11.1404294152       25.7738193114        5.3926083589  MEMB      69              0.0000000000
      6834        69  POPE      C39           -12.1849036210       23.9666057642        5.9052281743  MEMB      69              0.0000000000
      6835        69  POPE      H9X           -12.7663210226       24.4256180878        6.7332267313  MEMB      69              0.0000000000
      6836        69  POPE      H9Y           -11.9225958899       22.9673653174        6.3139263974  MEMB      69              0.0000000000
      6837        69  POPE      C310          -13.2023195020       23.7057147621        4.7322931545  MEMB      69              0.0000000000
      6838        69  POPE      H10X          -13.6920242734       22.7120570901        4.8168760418  MEMB      69              0.0000000000
      6839        69  POPE      H10Y          -12.6523901594       23.4640830444        3.7976738419  MEMB      69              0.0000000000
      6840        69  POPE      C311          -14.1390232781       24.9282328539        4.4509253849  MEMB      69              0.0000000000
      6841        69  POPE      H11X          -14.2442022755       25.5972591845        5.3316424875  MEMB      69              0.0000000000
      6842        69  POPE      H11Y          -15.1213426084       24.4722719858        4.2029947362  MEMB      69              0.0000000000
      6843        69  POPE      C312          -13.6821174633       25.7913441604        3.2562237161  MEMB      69              0.0000000000
      6844        69  POPE      H12X          -13.6739063173       25.0836208275        2.3998463922  MEMB      69              0.0000000000
      6845        69  POPE      H12Y          -12.6128304960       26.0365139153        3.4318311987  MEMB      69              0.0000000000
      6846        69  POPE      C313          -14.4945912798       27.0260015663        3.0444512454  MEMB      69              0.0000000000
      6847        69  POPE      H13X          -14.2112440142       27.6325850435        3.9310699206  MEMB      69              0.0000000000
      6848        69  POPE      H13Y          -15.5739481401       26.7802294660        2.9500818876  MEMB      69              0.0000000000
      6849        69  POPE      C314          -14.0431053859       27.7962754761        1.7775232483  MEMB      69              0.0000000000
      6850        69  POPE      H14X          -12.9990208721       28.1360403944        1.9471342139  MEMB      69              0.0000000000
      6851        69  POPE      H14Y          -14.6326482149       28.7379197138        1.7856741158  MEMB      69              0.0000000000
      6852        69  POPE      C315          -14.1645843618       26.9175203307        0.5188386047  MEMB      69              0.0000000000
      6853        69  POPE      H15X          -15.1538290960       26.4246520400        0.4057169017  MEMB      69              0.0000000000
      6854        69  POPE      H15Y          -13.3606040022       26.1607439729        0.6422325442  MEMB      69              0.0000000000
      6855        69  POPE      C316          -13.6862024903       27.6207668677       -0.7213464055  MEMB      69              0.0000000000
      6856        69  POPE      H16X          -14.2493610454       28.5777945159       -0.7570040442  MEMB      69              0.0000000000
      6857        69  POPE      H16Y          -13.9598592240       26.9670639577       -1.5769793827  MEMB      69              0.0000000000
      6858        69  POPE      H16Z          -12.5763508438       27.6597475219       -0.7534496364  MEMB      69              0.0000000000
      6859        70  POPE      N              31.7955813162       11.5683718263       20.1138233054  MEMB      70              0.0000000000
      6860        70  POPE      HN1            30.8153041926       11.5129339862       20.4567276215  MEMB      70              0.0000000000
      6861        70  POPE      HN2            32.3097672141       11.9902952393       20.9133190984  MEMB      70              0.0000000000
      6862        70  POPE      HN3            31.7818270176       12.2576161917       19.3351363820  MEMB      70              0.0000000000
      6863        70  POPE      C12            32.0976057724       10.2378955038       19.6408002066  MEMB      70              0.0000000000
      6864        70  POPE      H12A           31.4196739225        9.9404762412       18.8123853824  MEMB      70              0.0000000000
      6865        70  POPE      H12B           31.9852941507        9.4824000687       20.4476048495  MEMB      70              0.0000000000
      6866        70  POPE      C11            33.5789781004       10.1531941870       19.1883860916  MEMB      70              0.0000000000
      6867        70  POPE      H11A           34.3692611395       10.4974598202       19.8892819194  MEMB      70              0.0000000000
      6868        70  POPE      H11B           33.6643951550       10.7680247624       18.2669696246  MEMB      70              0.0000000000
      6869        70  POPE      P              35.1690759100        8.1417206167       18.6528769190  MEMB      70              0.0000000000
      6870        70  POPE      O13            35.8184563950        7.6506940197       19.9178991456  MEMB      70              0.0000000000
      6871        70  POPE      O14            35.9117193567        9.0962583679       17.8238443682  MEMB      70              0.0000000000
      6872        70  POPE      O11            34.7188446938        7.0019218354       17.7038725163  MEMB      70              0.0000000000
      6873        70  POPE      O12            33.8026656491        8.7339585269       18.9584974446  MEMB      70              0.0000000000
      6874        70  POPE      C1             33.6636064192        7.0504028003       16.6478269848  MEMB      70              0.0000000000
      6875        70  POPE      HA             32.8651459317        7.7213100525       17.0307962308  MEMB      70              0.0000000000
      6876        70  POPE      HB             33.3358635727        5.9963935024       16.5214540248  MEMB      70              0.0000000000
      6877        70  POPE      C2             34.2262645405        7.6698173275       15.3122499727  MEMB      70              0.0000000000
      6878        70  POPE      HS             33.7129549081        7.1818561141       14.4562547919  MEMB      70              0.0000000000
      6879        70  POPE      O21            35.6350665722        7.4082890963       15.2682611977  MEMB      70              0.0000000000
      6880        70  POPE      C21            35.9867083114        6.2250918458       14.8451793395  MEMB      70              0.0000000000
      6881        70  POPE      O22            35.2399282318        5.2489673714       14.7095774591  MEMB      70              0.0000000000
      6882        70  POPE      C22            37.4395689887        6.2987979266       14.4774100703  MEMB      70              0.0000000000
      6883        70  POPE      H2R            38.1373557815        5.8005644050       15.1839357003  MEMB      70              0.0000000000
      6884        70  POPE      H2S            37.8727746837        7.2925309591       14.2342052836  MEMB      70              0.0000000000
      6885        70  POPE      C3             34.0093473470        9.0978608203       15.1504752859  MEMB      70              0.0000000000
      6886        70  POPE      HX             34.3733449667        9.6468333674       16.0451573066  MEMB      70              0.0000000000
      6887        70  POPE      HY             32.9038968022        9.1987303185       15.1043733599  MEMB      70              0.0000000000
      6888        70  POPE      O31            34.6992689089        9.5145644734       13.8837406421  MEMB      70              0.0000000000
      6889        70  POPE      C31            35.1133365436       10.7621964255       13.7771482672  MEMB      70              0.0000000000
      6890        70  POPE      O32            35.0312612212       11.6188500912       14.6136958155  MEMB      70              0.0000000000
      6891        70  POPE      C32            35.7349148181       11.0026941185       12.4055207463  MEMB      70              0.0000000000
      6892        70  POPE      H2X            35.6952938384       12.0204835460       11.9618364517  MEMB      70              0.0000000000
      6893        70  POPE      H2Y            35.2259753469       10.4094808825       11.6159641905  MEMB      70              0.0000000000
      6894        70  POPE      C23            37.6252796017        5.4256667387       13.1704556463  MEMB      70              0.0000000000
      6895        70  POPE      H3R            36.8839558464        5.7923449441       12.4286291376  MEMB      70              0.0000000000
      6896        70  POPE      H3S            37.5133852211        4.3287990891       13.3071388533  MEMB      70              0.0000000000
      6897        70  POPE      C24            39.0988048247        5.5142117992       12.6107116835  MEMB      70              0.0000000000
      6898        70  POPE      H4R            39.8509006328        4.9686145065       13.2198068133  MEMB      70              0.0000000000
      6899        70  POPE      H4S            39.3839928614        6.5874859044       12.5779829568  MEMB      70              0.0000000000
      6900        70  POPE      C25            39.1567751613        4.8409949519       11.1865885516  MEMB      70              0.0000000000
      6901        70  POPE      H5R            38.8670314479        3.8068457475       11.4710263519  MEMB      70              0.0000000000
      6902        70  POPE      H5S            40.1661115491        4.9853453744       10.7453119246  MEMB      70              0.0000000000
      6903        70  POPE      C26            38.1912276080        5.4264565926       10.0461585994  MEMB      70              0.0000000000
      6904        70  POPE      H6R            37.1545694673        5.2104850654       10.3823386060  MEMB      70              0.0000000000
      6905        70  POPE      H6S            38.4238291519        4.9610457241        9.0645218417  MEMB      70              0.0000000000
      6906        70  POPE      C27            38.4175269057        6.9574593007        9.8007030636  MEMB      70              0.0000000000
      6907        70  POPE      H7R            39.5132442797        7.1359684229        9.7575872082  MEMB      70              0.0000000000
      6908        70  POPE      H7S            38.0483943900        7.5540125567       10.6622062289  MEMB      70              0.0000000000
      6909        70  POPE      C28            37.8132453675        7.4030485132        8.4874984058  MEMB      70              0.0000000000
      6910        70  POPE      H8R            38.1315478851        6.7376416215        7.6566923257  MEMB      70              0.0000000000
      6911        70  POPE      H8S            38.3926277057        8.2873424913        8.1459416680  MEMB      70              0.0000000000
      6912        70  POPE      C29            36.3294602928        7.7748770041        8.4729544340  MEMB      70              0.0000000000
      6913        70  POPE      H91            36.0256595279        8.7036191883        8.9780705672  MEMB      70              0.0000000000
      6914        70  POPE      C210           35.3129339240        7.0200461305        7.9271148612  MEMB      70              0.0000000000
      6915        70  POPE      H101           34.3096669327        7.4242148788        8.1273717436  MEMB      70              0.0000000000
      6916        70  POPE      C211           35.2666915827        5.7652348274        7.1800077242  MEMB      70              0.0000000000
      6917        70  POPE      H11R           34.6578521179        4.9740886873        7.6675771375  MEMB      70              0.0000000000
      6918        70  POPE      H11S           36.2919292542        5.3386414111        7.2150349572  MEMB      70              0.0000000000
      6919        70  POPE      C212           34.7778163491        5.9395202386        5.7389296766  MEMB      70              0.0000000000
      6920        70  POPE      H12R           33.7000441281        6.2081086360        5.7631835186  MEMB      70              0.0000000000
      6921        70  POPE      H12S           34.8494522267        4.9645766426        5.2110337627  MEMB      70              0.0000000000
      6922        70  POPE      C213           35.6049806279        6.8801911388        4.8951838213  MEMB      70              0.0000000000
      6923        70  POPE      H13R           35.7260846839        6.4891637472        3.8623469062  MEMB      70              0.0000000000
      6924        70  POPE      H13S           36.6533229558        6.8664229022        5.2627566479  MEMB      70              0.0000000000
      6925        70  POPE      C214           35.0220421986        8.2893730358        4.7906032741  MEMB      70              0.0000000000
      6926        70  POPE      H14R           35.1326251154        8.7105544146        5.8127078910  MEMB      70              0.0000000000
      6927        70  POPE      H14S           33.9829954138        8.5027729337        4.4602050409  MEMB      70              0.0000000000
      6928        70  POPE      C215           35.8703502602        9.2693145609        4.0158598496  MEMB      70              0.0000000000
      6929        70  POPE      H15R           36.9157382417        9.2645337990        4.3919741891  MEMB      70              0.0000000000
      6930        70  POPE      H15S           35.4502917829       10.2786792402        4.2134822318  MEMB      70              0.0000000000
      6931        70  POPE      C216           36.0839891830        9.0334651797        2.4968369328  MEMB      70              0.0000000000
      6932        70  POPE      H16R           36.3245997019        7.9708910894        2.2792047373  MEMB      70              0.0000000000
      6933        70  POPE      H16S           36.9906361666        9.6096274159        2.2133769678  MEMB      70              0.0000000000
      6934        70  POPE      C217           34.8964543619        9.4422349255        1.6353762992  MEMB      70              0.0000000000
      6935        70  POPE      H17R           35.2744329428        9.3452846552        0.5951582214  MEMB      70              0.0000000000
      6936        70  POPE      H17S           34.7731248371       10.5296934846        1.8265426504  MEMB      70              0.0000000000
      6937        70  POPE      C218           33.6190609924        8.5747592007        1.6662544263  MEMB      70              0.0000000000
      6938        70  POPE      H18R           33.1678543633        8.4684814353        0.6565819882  MEMB      70              0.0000000000
      6939        70  POPE      H18S           32.8943131129        9.1291705803        2.3000439382  MEMB      70              0.0000000000
      6940        70  POPE      H18T           33.8514876659        7.5614714737        2.0581053894  MEMB      70              0.0000000000
      6941        70  POPE      C33            37.1246624909       10.4145823163       12.3918132664  MEMB      70              0.0000000000
      6942        70  POPE      H3X            37.3048599949        9.4105221321       12.8319418949  MEMB      70              0.0000000000
      6943        70  POPE      H3Y            37.6643629658       11.1705557335       13.0013613138  MEMB      70              0.0000000000
      6944        70  POPE      C34            37.9246537762       10.4552820609       11.0417902347  MEMB      70              0.0000000000
      6945        70  POPE      H4X            37.5214660533        9.6553040268       10.3846791846  MEMB      70              0.0000000000
      6946        70  POPE      H4Y            38.9436460783       10.1574262356       11.3692927250  MEMB      70              0.0000000000
      6947        70  POPE      C35            38.1510756670       11.8280553870       10.4864214743  MEMB      70              0.0000000000
      6948        70  POPE      H5X            38.6335134317       12.4617885655       11.2609896646  MEMB      70              0.0000000000
      6949        70  POPE      H5Y            37.2215616121       12.3228949925       10.1322206459  MEMB      70              0.0000000000
      6950        70  POPE      C36            39.1860506831       12.0176329280        9.3934431098  MEMB      70              0.0000000000
      6951        70  POPE      H6X            40.1666465236       11.6547310701        9.7690158312  MEMB      70              0.0000000000
      6952        70  POPE      H6Y            39.4195450069       13.0853198097        9.1938276895  MEMB      70              0.0000000000
      6953        70  POPE      C37            38.9005682884       11.2957443325        8.0606960774  MEMB      70              0.0000000000
      6954        70  POPE      H7X            38.1615745150       11.9177014814        7.5117166713  MEMB      70              0.0000000000
      6955        70  POPE      H7Y            38.3571847629       10.3595406466        8.3108525923  MEMB      70              0.0000000000
      6956        70  POPE      C38            40.1629518794       11.1807826732        7.1947957901  MEMB      70              0.0000000000
      6957        70  POPE      H8X            40.7653028855       10.3797582367        7.6742268608  MEMB      70              0.0000000000
      6958        70  POPE      H8Y            40.7707012332       12.1100772995        7.1577464614  MEMB      70              0.0000000000
      6959        70  POPE      C39            39.7935477206       10.7309857340        5.7405456907  MEMB      70              0.0000000000
      6960        70  POPE      H9X            39.3015408588       11.5682624988        5.2009000732  MEMB      70              0.0000000000
      6961        70  POPE      H9Y            38.9989827245        9.9547781658        5.7184218698  MEMB      70              0.0000000000
      6962        70  POPE      C310           41.0965454904       10.2380043282        4.9393020708  MEMB      70              0.0000000000
      6963        70  POPE      H10X           41.5731824513        9.2946378124        5.2816431857  MEMB      70              0.0000000000
      6964        70  POPE      H10Y           41.8679146944       11.0257590260        5.0762453514  MEMB      70              0.0000000000
      6965        70  POPE      C311           40.7907233093       10.0882698959        3.4525132163  MEMB      70              0.0000000000
      6966        70  POPE      H11X           39.9904481779        9.3376679013        3.2779347408  MEMB      70              0.0000000000
      6967        70  POPE      H11Y           41.7731789626        9.6873167385        3.1233655205  MEMB      70              0.0000000000
      6968        70  POPE      C312           40.6018632447       11.4469722408        2.6854291192  MEMB      70              0.0000000000
      6969        70  POPE      H12X           41.3849694783       12.1346895621        3.0702800936  MEMB      70              0.0000000000
      6970        70  POPE      H12Y           39.5896593675       11.8594710681        2.8844501048  MEMB      70              0.0000000000
      6971        70  POPE      C313           40.9198911688       11.3417964777        1.1894882541  MEMB      70              0.0000000000
      6972        70  POPE      H13X           41.8810779322       10.8211970483        0.9909532369  MEMB      70              0.0000000000
      6973        70  POPE      H13Y           41.0040318634       12.4107555802        0.8986829400  MEMB      70              0.0000000000
      6974        70  POPE      C314           39.7195584658       10.6748648148        0.3972356563  MEMB      70              0.0000000000
      6975        70  POPE      H14X           38.6945277376       11.1007138940        0.4450371922  MEMB      70              0.0000000000
      6976        70  POPE      H14Y           39.5311502585        9.6195806075        0.6891224802  MEMB      70              0.0000000000
      6977        70  POPE      C315           39.9907473317       10.5025416250       -1.1198548019  MEMB      70              0.0000000000
      6978        70  POPE      H15X           39.1225630890       10.0524857739       -1.6471378456  MEMB      70              0.0000000000
      6979        70  POPE      H15Y           40.9445985422        9.9395127822       -1.2063864706  MEMB      70              0.0000000000
      6980        70  POPE      C316           40.2258835398       11.8569129673       -1.8317657683  MEMB      70              0.0000000000
      6981        70  POPE      H16X           39.2449331939       12.3768968928       -1.8726836305  MEMB      70              0.0000000000
      6982        70  POPE      H16Y           40.3029629622       11.7429138924       -2.9342105640  MEMB      70              0.0000000000
      6983        70  POPE      H16Z           40.9507082507       12.5614255786       -1.3706682282  MEMB      70              0.0000000000
      6984        71  POPC      N             -17.9848967765       33.7282644695       20.2879588526  MEMB      71              0.0000000000
      6985        71  POPC      C12           -17.3304057559       33.6058660025       18.9680407499  MEMB      71              0.0000000000
      6986        71  POPC      H12A          -17.0150399155       34.6270845038       18.8129379401  MEMB      71              0.0000000000
      6987        71  POPC      H12B          -18.0860159839       33.4376224162       18.2149488455  MEMB      71              0.0000000000
      6988        71  POPC      C13           -17.0616100020       34.4808013447       21.1499300967  MEMB      71              0.0000000000
      6989        71  POPC      H13A          -17.2578742055       34.1050321062       22.1432465357  MEMB      71              0.0000000000
      6990        71  POPC      H13B          -16.0340839478       34.2942050219       20.8746628337  MEMB      71              0.0000000000
      6991        71  POPC      H13C          -17.2258582502       35.5481887584       21.1602488879  MEMB      71              0.0000000000
      6992        71  POPC      C14           -19.2696825464       34.5519800899       20.0649214736  MEMB      71              0.0000000000
      6993        71  POPC      H14A          -19.5968759203       34.6805732599       21.0861012978  MEMB      71              0.0000000000
      6994        71  POPC      H14B          -19.0570294566       35.4899204688       19.5735492784  MEMB      71              0.0000000000
      6995        71  POPC      H14C          -19.9668212797       33.9868597336       19.4640583015  MEMB      71              0.0000000000
      6996        71  POPC      C15           -18.3321148552       32.4016474443       20.8783712069  MEMB      71              0.0000000000
      6997        71  POPC      H15A          -19.0380979506       31.9782350389       20.1792933663  MEMB      71              0.0000000000
      6998        71  POPC      H15B          -18.9541486668       32.6956565014       21.7108571197  MEMB      71              0.0000000000
      6999        71  POPC      H15C          -17.4397004754       31.8423183134       21.1174265341  MEMB      71              0.0000000000
      7000        71  POPC      C11           -16.1598640423       32.6579212951       18.6899184885  MEMB      71              0.0000000000
      7001        71  POPC      H11A          -15.3817589544       32.9665416888       19.4204163127  MEMB      71              0.0000000000
      7002        71  POPC      H11B          -15.7071076811       32.8419300415       17.6921842301  MEMB      71              0.0000000000
      7003        71  POPC      P             -17.2910635460       30.4796779795       17.7833403598  MEMB      71              0.0000000000
      7004        71  POPC      O13           -18.5877647835       31.1998244327       17.5731457183  MEMB      71              0.0000000000
      7005        71  POPC      O14           -17.3057502226       29.0420687236       18.1509527464  MEMB      71              0.0000000000
      7006        71  POPC      O12           -16.4012941061       31.2249461336       18.8645187305  MEMB      71              0.0000000000
      7007        71  POPC      O11           -16.3541994972       30.6923356995       16.5889015805  MEMB      71              0.0000000000
      7008        71  POPC      C1            -15.0419476060       30.1820062901       16.5372271410  MEMB      71              0.0000000000
      7009        71  POPC      HA            -15.1089148317       29.0788043063       16.6502844104  MEMB      71              0.0000000000
      7010        71  POPC      HB            -14.3825578728       30.6601466541       17.2928117709  MEMB      71              0.0000000000
      7011        71  POPC      C2            -14.4264715840       30.5138880381       15.0850493248  MEMB      71              0.0000000000
      7012        71  POPC      HS            -13.3396453891       30.2835731379       15.0942526003  MEMB      71              0.0000000000
      7013        71  POPC      O21           -14.7430542777       31.8625046080       14.7681166120  MEMB      71              0.0000000000
      7014        71  POPC      C21           -14.2048179651       32.8340619409       15.5723817762  MEMB      71              0.0000000000
      7015        71  POPC      O22           -13.4484641552       32.6925583562       16.5127567533  MEMB      71              0.0000000000
      7016        71  POPC      C22           -14.6751293538       34.1689495091       14.9988550751  MEMB      71              0.0000000000
      7017        71  POPC      H2R           -14.4735815683       34.9626133076       15.7497192816  MEMB      71              0.0000000000
      7018        71  POPC      H2S           -15.7219828099       34.0446161063       14.6481985229  MEMB      71              0.0000000000
      7019        71  POPC      C3            -14.9824588998       29.5311937385       14.0697223622  MEMB      71              0.0000000000
      7020        71  POPC      HX            -14.7605708031       28.5018061736       14.4239090651  MEMB      71              0.0000000000
      7021        71  POPC      HY            -14.4754675315       29.7515771251       13.1060253070  MEMB      71              0.0000000000
      7022        71  POPC      O31           -16.3817618953       29.7345345959       14.0622284328  MEMB      71              0.0000000000
      7023        71  POPC      C31           -17.1353205193       28.7290881166       13.8002679437  MEMB      71              0.0000000000
      7024        71  POPC      O32           -16.8115906274       27.6064952392       13.5345183602  MEMB      71              0.0000000000
      7025        71  POPC      C32           -18.5524026820       29.2304379630       13.7738097473  MEMB      71              0.0000000000
      7026        71  POPC      H2X           -18.4603093420       30.1979552349       14.3120941783  MEMB      71              0.0000000000
      7027        71  POPC      H2Y           -19.2809406652       28.6693092791       14.3972581352  MEMB      71              0.0000000000
      7028        71  POPC      C23           -13.8342143810       34.4878418649       13.7755168016  MEMB      71              0.0000000000
      7029        71  POPC      H3R           -13.8921142924       33.5892164760       13.1247932430  MEMB      71              0.0000000000
      7030        71  POPC      H3S           -12.7571335492       34.5150537764       14.0465846445  MEMB      71              0.0000000000
      7031        71  POPC      C24           -14.2839770912       35.6914970606       13.0017511890  MEMB      71              0.0000000000
      7032        71  POPC      H4R           -13.4867018175       36.0106124853       12.2968831942  MEMB      71              0.0000000000
      7033        71  POPC      H4S           -14.4029701099       36.6103426677       13.6148452551  MEMB      71              0.0000000000
      7034        71  POPC      C25           -15.5423706479       35.4968720663       12.1574245718  MEMB      71              0.0000000000
      7035        71  POPC      H5R           -16.3906483244       35.6504769923       12.8582467362  MEMB      71              0.0000000000
      7036        71  POPC      H5S           -15.5543590855       34.4142222652       11.9083325945  MEMB      71              0.0000000000
      7037        71  POPC      C26           -15.7384630292       36.3637969500       10.9359805935  MEMB      71              0.0000000000
      7038        71  POPC      H6R           -14.8289741990       36.2514295730       10.3078685980  MEMB      71              0.0000000000
      7039        71  POPC      H6S           -15.7500540728       37.3770968021       11.3914033680  MEMB      71              0.0000000000
      7040        71  POPC      C27           -16.9174324301       35.9746177269       10.0875919225  MEMB      71              0.0000000000
      7041        71  POPC      H7R           -17.0457567113       36.6975830956        9.2538214364  MEMB      71              0.0000000000
      7042        71  POPC      H7S           -17.8339788204       35.9669888606       10.7154503736  MEMB      71              0.0000000000
      7043        71  POPC      C28           -16.7411821754       34.5639861281        9.4316254906  MEMB      71              0.0000000000
      7044        71  POPC      H8R           -16.6219123908       33.8188885686       10.2470549980  MEMB      71              0.0000000000
      7045        71  POPC      H8S           -15.8372726339       34.5882602275        8.7861185517  MEMB      71              0.0000000000
      7046        71  POPC      C29           -17.8836214242       34.0556911469        8.5678106722  MEMB      71              0.0000000000
      7047        71  POPC      H91           -18.3826312884       33.1379806727        8.9124788087  MEMB      71              0.0000000000
      7048        71  POPC      C210          -18.2324733300       34.5635110249        7.3690294111  MEMB      71              0.0000000000
      7049        71  POPC      H101          -19.1479213463       34.1188569981        6.9516122807  MEMB      71              0.0000000000
      7050        71  POPC      C211          -17.6798147771       35.7684201796        6.5729898581  MEMB      71              0.0000000000
      7051        71  POPC      H11R          -17.1073326739       36.4321985746        7.2556202528  MEMB      71              0.0000000000
      7052        71  POPC      H11S          -18.5852708921       36.3136532754        6.2306580066  MEMB      71              0.0000000000
      7053        71  POPC      C212          -16.7229743597       35.3287900494        5.4979124318  MEMB      71              0.0000000000
      7054        71  POPC      H12R          -16.5393983932       36.2030577278        4.8374003123  MEMB      71              0.0000000000
      7055        71  POPC      H12S          -17.0486507664       34.4932299336        4.8420959135  MEMB      71              0.0000000000
      7056        71  POPC      C213          -15.2520133779       34.9766147956        6.0040956301  MEMB      71              0.0000000000
      7057        71  POPC      H13R          -15.1547161030       34.3571654677        6.9212310256  MEMB      71              0.0000000000
      7058        71  POPC      H13S          -14.6173795419       35.8715928892        6.1789532127  MEMB      71              0.0000000000
      7059        71  POPC      C214          -14.2457822172       34.1964887231        5.0432799586  MEMB      71              0.0000000000
      7060        71  POPC      H14R          -13.3870624298       33.9255567275        5.6940623218  MEMB      71              0.0000000000
      7061        71  POPC      H14S          -13.8436253265       34.9434417010        4.3258876845  MEMB      71              0.0000000000
      7062        71  POPC      C215          -14.8792318407       32.9508481037        4.3048344757  MEMB      71              0.0000000000
      7063        71  POPC      H15R          -15.8345027324       33.2624683312        3.8308389319  MEMB      71              0.0000000000
      7064        71  POPC      H15S          -15.1185726702       32.2156917229        5.1026951749  MEMB      71              0.0000000000
      7065        71  POPC      C216          -14.0668779682       32.1975277646        3.2299054502  MEMB      71              0.0000000000
      7066        71  POPC      H16R          -14.3737041205       32.7225236034        2.3000886395  MEMB      71              0.0000000000
      7067        71  POPC      H16S          -14.5980681383       31.2456879300        3.0150596150  MEMB      71              0.0000000000
      7068        71  POPC      C217          -12.6256505447       32.0077891486        3.4502545989  MEMB      71              0.0000000000
      7069        71  POPC      H17R          -12.4341350130       31.6704644278        4.4913378057  MEMB      71              0.0000000000
      7070        71  POPC      H17S          -11.9581660496       32.8843077684        3.3070747469  MEMB      71              0.0000000000
      7071        71  POPC      C218          -12.0116026340       30.9740573084        2.5377351282  MEMB      71              0.0000000000
      7072        71  POPC      H18R          -11.9183820558       31.3317650183        1.4900343086  MEMB      71              0.0000000000
      7073        71  POPC      H18S          -12.4775140034       29.9663406001        2.5796136386  MEMB      71              0.0000000000
      7074        71  POPC      H18T          -10.9873412202       30.8430428022        2.9476670485  MEMB      71              0.0000000000
      7075        71  POPC      C33           -19.1680803703       29.7308424700       12.4599440290  MEMB      71              0.0000000000
      7076        71  POPC      H3X           -18.4936967757       30.5239971249       12.0720861940  MEMB      71              0.0000000000
      7077        71  POPC      H3Y           -20.1508058636       30.2287935820       12.6035277918  MEMB      71              0.0000000000
      7078        71  POPC      C34           -19.2736859026       28.6236046885       11.3711605900  MEMB      71              0.0000000000
      7079        71  POPC      H4X           -20.0490929366       27.9324082360       11.7652571116  MEMB      71              0.0000000000
      7080        71  POPC      H4Y           -18.2955443485       28.1100394606       11.2536407327  MEMB      71              0.0000000000
      7081        71  POPC      C35           -19.7868994423       29.0433590366        9.9951629276  MEMB      71              0.0000000000
      7082        71  POPC      H5X           -20.6623718366       29.6999529766       10.1868741004  MEMB      71              0.0000000000
      7083        71  POPC      H5Y           -20.0892928910       28.1294386493        9.4405196131  MEMB      71              0.0000000000
      7084        71  POPC      C36           -18.8438485818       29.7468733923        9.0161091585  MEMB      71              0.0000000000
      7085        71  POPC      H6X           -18.3185421922       30.5313804714        9.6017056470  MEMB      71              0.0000000000
      7086        71  POPC      H6Y           -19.5318005463       30.1338780361        8.2342711818  MEMB      71              0.0000000000
      7087        71  POPC      C37           -17.8256701037       28.8619995058        8.3533090971  MEMB      71              0.0000000000
      7088        71  POPC      H7X           -18.4295580067       28.0585631287        7.8798844875  MEMB      71              0.0000000000
      7089        71  POPC      H7Y           -16.9878125274       28.4972009137        8.9851613444  MEMB      71              0.0000000000
      7090        71  POPC      C38           -17.1526994641       29.5741843178        7.1600745911  MEMB      71              0.0000000000
      7091        71  POPC      H8X           -16.2754933407       28.9896451313        6.8091559977  MEMB      71              0.0000000000
      7092        71  POPC      H8Y           -16.8179492849       30.5656166589        7.5333373764  MEMB      71              0.0000000000
      7093        71  POPC      C39           -18.0957750839       29.8636683327        5.9609281687  MEMB      71              0.0000000000
      7094        71  POPC      H9X           -18.7662889702       30.6913082541        6.2767509923  MEMB      71              0.0000000000
      7095        71  POPC      H9Y           -18.7079149716       28.9669141991        5.7254762581  MEMB      71              0.0000000000
      7096        71  POPC      C310          -17.4631570800       30.4143981398        4.6787941220  MEMB      71              0.0000000000
      7097        71  POPC      H10X          -16.5469559080       29.8525937062        4.3972406686  MEMB      71              0.0000000000
      7098        71  POPC      H10Y          -17.0935034542       31.4236399377        4.9600561691  MEMB      71              0.0000000000
      7099        71  POPC      C311          -18.2029929960       30.3983435509        3.3552935887  MEMB      71              0.0000000000
      7100        71  POPC      H11X          -19.2495603143       30.6027526693        3.6671194279  MEMB      71              0.0000000000
      7101        71  POPC      H11Y          -18.1319823219       29.4115904909        2.8497279096  MEMB      71              0.0000000000
      7102        71  POPC      C312          -17.7281857800       31.5224796402        2.5037964037  MEMB      71              0.0000000000
      7103        71  POPC      H12X          -16.7062923160       31.3492804239        2.1037252149  MEMB      71              0.0000000000
      7104        71  POPC      H12Y          -17.5634603192       32.3288456646        3.2500950289  MEMB      71              0.0000000000
      7105        71  POPC      C313          -18.7387024877       32.1113329664        1.5486149367  MEMB      71              0.0000000000
      7106        71  POPC      H13X          -18.5894632640       33.2104975552        1.4862761475  MEMB      71              0.0000000000
      7107        71  POPC      H13Y          -19.8030278106       31.9787708618        1.8383734881  MEMB      71              0.0000000000
      7108        71  POPC      C314          -18.5579754441       31.5225237621        0.1182112234  MEMB      71              0.0000000000
      7109        71  POPC      H14X          -19.4372770919       31.9781113612       -0.3853657200  MEMB      71              0.0000000000
      7110        71  POPC      H14Y          -18.6045855560       30.4209580793        0.2549668977  MEMB      71              0.0000000000
      7111        71  POPC      C315          -17.2988083007       31.8415143546       -0.6716736449  MEMB      71              0.0000000000
      7112        71  POPC      H15X          -17.3244864815       31.1430031703       -1.5352385978  MEMB      71              0.0000000000
      7113        71  POPC      H15Y          -16.3873323113       31.6213341523       -0.0758102835  MEMB      71              0.0000000000
      7114        71  POPC      C316          -17.1345444038       33.2989587276       -1.2606146823  MEMB      71              0.0000000000
      7115        71  POPC      H16X          -16.1124754586       33.4029996727       -1.6835469812  MEMB      71              0.0000000000
      7116        71  POPC      H16Y          -17.2585516898       34.0233204202       -0.4274014924  MEMB      71              0.0000000000
      7117        71  POPC      H16Z          -17.9131793270       33.3325117401       -2.0523991574  MEMB      71              0.0000000000
      7118        72  POPE      N             -24.5169535745       38.4909331738       21.3159616370  MEMB      72              0.0000000000
      7119        72  POPE      HN1           -23.5440221802       38.7608332154       21.0666461672  MEMB      72              0.0000000000
      7120        72  POPE      HN2           -25.1587873555       38.8782832302       20.5951222035  MEMB      72              0.0000000000
      7121        72  POPE      HN3           -24.8738920366       38.8074956297       22.2400738312  MEMB      72              0.0000000000
      7122        72  POPE      C12           -24.5822735710       36.9479260461       21.5094058141  MEMB      72              0.0000000000
      7123        72  POPE      H12A          -25.6522278363       36.7381271829       21.7227207918  MEMB      72              0.0000000000
      7124        72  POPE      H12B          -24.0029703285       36.8250475634       22.4494215787  MEMB      72              0.0000000000
      7125        72  POPE      C11           -24.0385245937       36.2224032017       20.2881335104  MEMB      72              0.0000000000
      7126        72  POPE      H11A          -24.1101531765       35.1351287428       20.5049848518  MEMB      72              0.0000000000
      7127        72  POPE      H11B          -22.9701296499       36.3993391557       20.0400470900  MEMB      72              0.0000000000
      7128        72  POPE      P             -24.3511073374       36.1180328847       17.7224142054  MEMB      72              0.0000000000
      7129        72  POPE      O13           -24.8837146685       34.7549077299       17.3691990481  MEMB      72              0.0000000000
      7130        72  POPE      O14           -22.8950730119       36.2742048418       17.8288503991  MEMB      72              0.0000000000
      7131        72  POPE      O11           -24.9841322318       37.1916375877       16.8186903476  MEMB      72              0.0000000000
      7132        72  POPE      O12           -24.9160586184       36.4500049276       19.1473450355  MEMB      72              0.0000000000
      7133        72  POPE      C1            -25.5076033514       38.3989927077       17.2212421433  MEMB      72              0.0000000000
      7134        72  POPE      HA            -24.6700160825       39.0921310026       17.4499947949  MEMB      72              0.0000000000
      7135        72  POPE      HB            -26.2109140677       38.3211759968       18.0777581919  MEMB      72              0.0000000000
      7136        72  POPE      C2            -26.1930999993       39.0918656883       15.9962508200  MEMB      72              0.0000000000
      7137        72  POPE      HS            -26.4864249544       38.2521532356       15.3305447919  MEMB      72              0.0000000000
      7138        72  POPE      O21           -25.2404934561       39.9318655299       15.2749383382  MEMB      72              0.0000000000
      7139        72  POPE      C21           -24.3501755531       39.3801711205       14.5828936561  MEMB      72              0.0000000000
      7140        72  POPE      O22           -24.1236130623       38.1494380083       14.4062730918  MEMB      72              0.0000000000
      7141        72  POPE      C22           -23.5046376580       40.4614119923       13.9125955216  MEMB      72              0.0000000000
      7142        72  POPE      H2R           -22.9995080130       41.0770190783       14.6873164411  MEMB      72              0.0000000000
      7143        72  POPE      H2S           -24.1650050215       41.0022538079       13.2014512939  MEMB      72              0.0000000000
      7144        72  POPE      C3            -27.4037702902       39.8826811089       16.5282381736  MEMB      72              0.0000000000
      7145        72  POPE      HX            -27.0369982381       40.6639892507       17.2277783765  MEMB      72              0.0000000000
      7146        72  POPE      HY            -28.2234824935       39.2687483719       16.9589112629  MEMB      72              0.0000000000
      7147        72  POPE      O31           -27.8710904265       40.7269312336       15.4171269627  MEMB      72              0.0000000000
      7148        72  POPE      C31           -28.8464018589       40.2637395036       14.6643687734  MEMB      72              0.0000000000
      7149        72  POPE      O32           -29.6378090499       39.3976880530       15.0029397346  MEMB      72              0.0000000000
      7150        72  POPE      C32           -28.7166664135       40.9673910912       13.3498724561  MEMB      72              0.0000000000
      7151        72  POPE      H2X           -28.4824765534       42.0376074584       13.5345689280  MEMB      72              0.0000000000
      7152        72  POPE      H2Y           -29.7123658904       41.0930170037       12.8733001283  MEMB      72              0.0000000000
      7153        72  POPE      C23           -22.5157901571       39.7750281773       12.9569766379  MEMB      72              0.0000000000
      7154        72  POPE      H3R           -22.9278720020       38.9950764726       12.2815619684  MEMB      72              0.0000000000
      7155        72  POPE      H3S           -21.7025597307       39.2699167635       13.5207492936  MEMB      72              0.0000000000
      7156        72  POPE      C24           -21.8643331309       40.7011644952       11.8862234300  MEMB      72              0.0000000000
      7157        72  POPE      H4R           -20.9301197829       40.1250044337       11.7141595965  MEMB      72              0.0000000000
      7158        72  POPE      H4S           -21.4439534845       41.6436686900       12.2976695853  MEMB      72              0.0000000000
      7159        72  POPE      C25           -22.6613848131       40.8635676733       10.6070746081  MEMB      72              0.0000000000
      7160        72  POPE      H5R           -23.3982298952       41.6827875210       10.7494092267  MEMB      72              0.0000000000
      7161        72  POPE      H5S           -23.2767025929       39.9910940626       10.2996742521  MEMB      72              0.0000000000
      7162        72  POPE      C26           -21.8065437810       41.2413745845        9.3678064807  MEMB      72              0.0000000000
      7163        72  POPE      H6R           -21.0869945738       42.0762643947        9.5075539341  MEMB      72              0.0000000000
      7164        72  POPE      H6S           -22.4779746061       41.7473866706        8.6415458281  MEMB      72              0.0000000000
      7165        72  POPE      C27           -21.1081755698       40.0813644612        8.7939857175  MEMB      72              0.0000000000
      7166        72  POPE      H7R           -21.9166079978       39.5708576960        8.2281758996  MEMB      72              0.0000000000
      7167        72  POPE      H7S           -20.8550310958       39.3412878703        9.5829893862  MEMB      72              0.0000000000
      7168        72  POPE      C28           -19.8293497649       40.3342488284        7.9554721158  MEMB      72              0.0000000000
      7169        72  POPE      H8R           -19.3402864935       39.3664852355        7.7134561972  MEMB      72              0.0000000000
      7170        72  POPE      H8S           -19.1374908945       40.8993424375        8.6160182779  MEMB      72              0.0000000000
      7171        72  POPE      C29           -20.2434333573       41.1400654769        6.8012984192  MEMB      72              0.0000000000
      7172        72  POPE      H91           -20.1307237661       42.2282372529        6.9160981878  MEMB      72              0.0000000000
      7173        72  POPE      C210          -20.8905185059       40.5703709416        5.7500002150  MEMB      72              0.0000000000
      7174        72  POPE      H101          -21.2552634675       41.1475001540        4.8875139493  MEMB      72              0.0000000000
      7175        72  POPE      C211          -21.2685974068       39.1135118967        5.5170234368  MEMB      72              0.0000000000
      7176        72  POPE      H11R          -22.3307837195       38.8115710233        5.6391407871  MEMB      72              0.0000000000
      7177        72  POPE      H11S          -20.6412473862       38.3903616855        6.0807671680  MEMB      72              0.0000000000
      7178        72  POPE      C212          -20.9015353327       38.8315855020        4.0012161629  MEMB      72              0.0000000000
      7179        72  POPE      H12R          -20.9079630158       37.7612339040        3.7035141241  MEMB      72              0.0000000000
      7180        72  POPE      H12S          -19.9102218202       39.2713572332        3.7599288084  MEMB      72              0.0000000000
      7181        72  POPE      C213          -21.8701378069       39.5849180210        2.9723165658  MEMB      72              0.0000000000
      7182        72  POPE      H13R          -21.5797107179       39.5565083730        1.9003248090  MEMB      72              0.0000000000
      7183        72  POPE      H13S          -21.9524948866       40.6898836247        3.0534908240  MEMB      72              0.0000000000
      7184        72  POPE      C214          -23.2862212476       39.1500625848        2.9387550927  MEMB      72              0.0000000000
      7185        72  POPE      H14R          -23.9912880669       39.8466755470        2.4368272263  MEMB      72              0.0000000000
      7186        72  POPE      H14S          -23.7568040443       39.1054400589        3.9441805197  MEMB      72              0.0000000000
      7187        72  POPE      C215          -23.5798359567       37.8383728235        2.1158534764  MEMB      72              0.0000000000
      7188        72  POPE      H15R          -23.0430493917       36.9732692909        2.5605766327  MEMB      72              0.0000000000
      7189        72  POPE      H15S          -23.1318091416       38.0411346596        1.1196218614  MEMB      72              0.0000000000
      7190        72  POPE      C216          -25.0579757489       37.4229571323        2.0200262990  MEMB      72              0.0000000000
      7191        72  POPE      H16R          -25.2253576005       37.2477360622        3.1042772928  MEMB      72              0.0000000000
      7192        72  POPE      H16S          -25.1081074555       36.4519632675        1.4824582216  MEMB      72              0.0000000000
      7193        72  POPE      C217          -26.0740675145       38.4324879241        1.5441002244  MEMB      72              0.0000000000
      7194        72  POPE      H17R          -25.9268938350       38.6602389643        0.4666994302  MEMB      72              0.0000000000
      7195        72  POPE      H17S          -25.9592439182       39.3986531060        2.0804404371  MEMB      72              0.0000000000
      7196        72  POPE      C218          -27.5344912185       37.9789878259        1.7765505067  MEMB      72              0.0000000000
      7197        72  POPE      H18R          -28.1745459116       38.8727617821        1.6158685575  MEMB      72              0.0000000000
      7198        72  POPE      H18S          -27.6325752297       37.6885880838        2.8444313997  MEMB      72              0.0000000000
      7199        72  POPE      H18T          -27.7622258565       37.1014244729        1.1344132501  MEMB      72              0.0000000000
      7200        72  POPE      C33           -27.6959763249       40.4048736713       12.3696306323  MEMB      72              0.0000000000
      7201        72  POPE      H3X           -28.1220295223       39.4094200983       12.1208899623  MEMB      72              0.0000000000
      7202        72  POPE      H3Y           -26.7307907595       40.1738134891       12.8689792128  MEMB      72              0.0000000000
      7203        72  POPE      C34           -27.4795313227       41.3419474266       11.1717213771  MEMB      72              0.0000000000
      7204        72  POPE      H4X           -27.1009274632       42.2439189673       11.6984346174  MEMB      72              0.0000000000
      7205        72  POPE      H4Y           -28.4685990452       41.7241180971       10.8400415533  MEMB      72              0.0000000000
      7206        72  POPE      C35           -26.5836560392       41.0115260203       10.0282559274  MEMB      72              0.0000000000
      7207        72  POPE      H5X           -25.6106634125       40.6537750756       10.4277814544  MEMB      72              0.0000000000
      7208        72  POPE      H5Y           -26.3555893570       41.8712377527        9.3625211111  MEMB      72              0.0000000000
      7209        72  POPE      C36           -27.2510970573       40.0018235482        9.0973309808  MEMB      72              0.0000000000
      7210        72  POPE      H6X           -28.1722267340       40.5479280068        8.8013386219  MEMB      72              0.0000000000
      7211        72  POPE      H6Y           -27.6221383606       39.0920818844        9.6160018532  MEMB      72              0.0000000000
      7212        72  POPE      C37           -26.4243547087       39.5865178014        7.8254115629  MEMB      72              0.0000000000
      7213        72  POPE      H7X           -27.1122170587       38.8477879280        7.3612512361  MEMB      72              0.0000000000
      7214        72  POPE      H7Y           -25.4331700664       39.1452804343        8.0645408533  MEMB      72              0.0000000000
      7215        72  POPE      C38           -26.0005026096       40.7190773242        6.8732726131  MEMB      72              0.0000000000
      7216        72  POPE      H8X           -25.2972237608       40.2296970156        6.1660060909  MEMB      72              0.0000000000
      7217        72  POPE      H8Y           -25.3858750999       41.3600618632        7.5408753166  MEMB      72              0.0000000000
      7218        72  POPE      C39           -27.1545723979       41.4448388628        6.1663408852  MEMB      72              0.0000000000
      7219        72  POPE      H9X           -27.8338693882       41.7711658105        6.9826663801  MEMB      72              0.0000000000
      7220        72  POPE      H9Y           -27.7182826670       40.7337258174        5.5253497492  MEMB      72              0.0000000000
      7221        72  POPE      C310          -26.5331865121       42.6363635626        5.3879716623  MEMB      72              0.0000000000
      7222        72  POPE      H10X          -25.7875510875       42.1519778292        4.7218490494  MEMB      72              0.0000000000
      7223        72  POPE      H10Y          -26.0094777155       43.2318764001        6.1660555486  MEMB      72              0.0000000000
      7224        72  POPE      C311          -27.6364278518       43.4049231711        4.7235062141  MEMB      72              0.0000000000
      7225        72  POPE      H11X          -28.1277921330       43.9674465686        5.5459717628  MEMB      72              0.0000000000
      7226        72  POPE      H11Y          -28.3555874395       42.6932436237        4.2645478295  MEMB      72              0.0000000000
      7227        72  POPE      C312          -27.1306846409       44.4600587205        3.8156215377  MEMB      72              0.0000000000
      7228        72  POPE      H12X          -26.4905176168       45.2359103397        4.2873862241  MEMB      72              0.0000000000
      7229        72  POPE      H12Y          -27.9649689993       45.0986245778        3.4543422536  MEMB      72              0.0000000000
      7230        72  POPE      C313          -26.3675168267       43.8888278177        2.5071809992  MEMB      72              0.0000000000
      7231        72  POPE      H13X          -26.4850118701       42.7840582415        2.5069423803  MEMB      72              0.0000000000
      7232        72  POPE      H13Y          -25.2956986155       44.0889030320        2.7204803609  MEMB      72              0.0000000000
      7233        72  POPE      C314          -26.7339151444       44.5908282469        1.2353165728  MEMB      72              0.0000000000
      7234        72  POPE      H14X          -26.3410212477       45.6296673292        1.2630493331  MEMB      72              0.0000000000
      7235        72  POPE      H14Y          -27.8287148515       44.6164034613        1.0480188513  MEMB      72              0.0000000000
      7236        72  POPE      C315          -26.0833862884       44.1662023764       -0.1179297513  MEMB      72              0.0000000000
      7237        72  POPE      H15X          -24.9836290542       44.1623117702        0.0396776227  MEMB      72              0.0000000000
      7238        72  POPE      H15Y          -26.2407498723       45.0609324832       -0.7574739105  MEMB      72              0.0000000000
      7239        72  POPE      C316          -26.5942047733       42.9118067547       -0.7805102061  MEMB      72              0.0000000000
      7240        72  POPE      H16X          -27.6739458149       43.0467497329       -1.0047231404  MEMB      72              0.0000000000
      7241        72  POPE      H16Y          -26.5572356885       41.9951256007       -0.1538938677  MEMB      72              0.0000000000
      7242        72  POPE      H16Z          -26.0460927976       42.8107871410       -1.7415984291  MEMB      72              0.0000000000
      7243        73  POPC      N             -37.3665782719       38.2544376565       20.4692342926  MEMB      73              0.0000000000
      7244        73  POPC      C12           -38.0394628093       38.8140359963       19.2820595091  MEMB      73              0.0000000000
      7245        73  POPC      H12A          -37.6500910465       39.8021823405       19.0862118139  MEMB      73              0.0000000000
      7246        73  POPC      H12B          -39.0450502905       38.9181852732       19.6619893839  MEMB      73              0.0000000000
      7247        73  POPC      C13           -38.3331767152       37.1852810371       21.0246373206  MEMB      73              0.0000000000
      7248        73  POPC      H13A          -39.1650238339       37.5984221566       21.5757677717  MEMB      73              0.0000000000
      7249        73  POPC      H13B          -38.6015562146       36.5112559775       20.2245981353  MEMB      73              0.0000000000
      7250        73  POPC      H13C          -37.6449570812       36.6004868459       21.6168952094  MEMB      73              0.0000000000
      7251        73  POPC      C14           -35.9946972366       37.6795874757       20.1654312248  MEMB      73              0.0000000000
      7252        73  POPC      H14A          -35.4019988373       37.3898624238       21.0205148120  MEMB      73              0.0000000000
      7253        73  POPC      H14B          -36.0742273713       36.9456556034       19.3771299367  MEMB      73              0.0000000000
      7254        73  POPC      H14C          -35.5266073406       38.5109464478       19.6593340422  MEMB      73              0.0000000000
      7255        73  POPC      C15           -37.2492471246       39.4111735940       21.5616009511  MEMB      73              0.0000000000
      7256        73  POPC      H15A          -38.2190021416       39.4267823623       22.0367131140  MEMB      73              0.0000000000
      7257        73  POPC      H15B          -37.0062236191       40.3194796606       21.0302632360  MEMB      73              0.0000000000
      7258        73  POPC      H15C          -36.4664192853       39.1781020201       22.2681830369  MEMB      73              0.0000000000
      7259        73  POPC      C11           -38.0818013498       38.0783574453       17.8535510516  MEMB      73              0.0000000000
      7260        73  POPC      H11A          -37.0992365101       37.8673045097       17.3799010604  MEMB      73              0.0000000000
      7261        73  POPC      H11B          -38.6828443914       38.7071389181       17.1623911601  MEMB      73              0.0000000000
      7262        73  POPC      P             -40.1541337317       36.5874376440       17.8124742474  MEMB      73              0.0000000000
      7263        73  POPC      O13           -40.7912913983       37.6519592993       18.6622274986  MEMB      73              0.0000000000
      7264        73  POPC      O14           -40.6055119031       35.1865730878       17.8855327920  MEMB      73              0.0000000000
      7265        73  POPC      O12           -38.5727559776       36.8254902139       17.9363841902  MEMB      73              0.0000000000
      7266        73  POPC      O11           -40.2673634793       37.0619487461       16.3468669199  MEMB      73              0.0000000000
      7267        73  POPC      C1            -41.4422934209       36.7959566158       15.5889926596  MEMB      73              0.0000000000
      7268        73  POPC      HA            -41.3776936028       37.5034311786       14.7348103988  MEMB      73              0.0000000000
      7269        73  POPC      HB            -42.3871230529       37.1132712669       16.0798384765  MEMB      73              0.0000000000
      7270        73  POPC      C2            -41.4091617372       35.3677609135       15.0006098719  MEMB      73              0.0000000000
      7271        73  POPC      HS            -41.7868588034       34.5463357339       15.6463081547  MEMB      73              0.0000000000
      7272        73  POPC      O21           -40.0216185044       35.1232100913       14.7132807886  MEMB      73              0.0000000000
      7273        73  POPC      C21           -39.3676800111       34.0300798145       14.7753299454  MEMB      73              0.0000000000
      7274        73  POPC      O22           -39.8024746133       32.9470241602       15.1065730869  MEMB      73              0.0000000000
      7275        73  POPC      C22           -37.9278420024       34.2606483437       14.3481504310  MEMB      73              0.0000000000
      7276        73  POPC      H2R           -37.1983838005       33.8493236849       15.0782353040  MEMB      73              0.0000000000
      7277        73  POPC      H2S           -37.6994569072       35.3479192776       14.3499167007  MEMB      73              0.0000000000
      7278        73  POPC      C3            -42.2026164146       35.2552496994       13.6736025329  MEMB      73              0.0000000000
      7279        73  POPC      HX            -43.2630276500       35.4546946959       13.9383110048  MEMB      73              0.0000000000
      7280        73  POPC      HY            -42.0989932013       34.2379854124       13.2391408267  MEMB      73              0.0000000000
      7281        73  POPC      O31           -41.7621061417       36.1572077538       12.7115763095  MEMB      73              0.0000000000
      7282        73  POPC      C31           -42.6037165894       36.2880046395       11.6304465536  MEMB      73              0.0000000000
      7283        73  POPC      O32           -43.7423388536       35.9253531255       11.5489096479  MEMB      73              0.0000000000
      7284        73  POPC      C32           -41.9125831062       37.0132957438       10.4835328549  MEMB      73              0.0000000000
      7285        73  POPC      H2X           -42.2257148846       36.5550981994        9.5210751081  MEMB      73              0.0000000000
      7286        73  POPC      H2Y           -40.8109248142       36.8963932052       10.5672209281  MEMB      73              0.0000000000
      7287        73  POPC      C23           -37.6956440950       33.5866627538       13.0136857919  MEMB      73              0.0000000000
      7288        73  POPC      H3R           -37.9878632481       32.5264435276       13.1713684742  MEMB      73              0.0000000000
      7289        73  POPC      H3S           -36.6380837979       33.7821125057       12.7349619769  MEMB      73              0.0000000000
      7290        73  POPC      C24           -38.4968107626       34.2168469341       11.9271999609  MEMB      73              0.0000000000
      7291        73  POPC      H4R           -38.1285052757       35.2263294659       11.6450352396  MEMB      73              0.0000000000
      7292        73  POPC      H4S           -39.5930355653       34.2059467208       12.1074591495  MEMB      73              0.0000000000
      7293        73  POPC      C25           -38.3474638838       33.2928441887       10.7511181258  MEMB      73              0.0000000000
      7294        73  POPC      H5R           -38.8102900248       32.3353359319       11.0725071971  MEMB      73              0.0000000000
      7295        73  POPC      H5S           -37.3103505534       33.0741438574       10.4181206415  MEMB      73              0.0000000000
      7296        73  POPC      C26           -39.1746158577       33.8006903165        9.5205226418  MEMB      73              0.0000000000
      7297        73  POPC      H6R           -39.0250228528       34.8723101493        9.2683837180  MEMB      73              0.0000000000
      7298        73  POPC      H6S           -40.2605354770       33.5718236449        9.5726725211  MEMB      73              0.0000000000
      7299        73  POPC      C27           -38.7398759992       32.9473274267        8.2514583858  MEMB      73              0.0000000000
      7300        73  POPC      H7R           -38.8422366637       31.8529323565        8.4131442142  MEMB      73              0.0000000000
      7301        73  POPC      H7S           -37.6420553853       33.1023104466        8.1801047478  MEMB      73              0.0000000000
      7302        73  POPC      C28           -39.5055711504       33.4396116646        7.0896994169  MEMB      73              0.0000000000
      7303        73  POPC      H8R           -39.2744400351       32.9229759757        6.1336727374  MEMB      73              0.0000000000
      7304        73  POPC      H8S           -39.2057238845       34.4904869787        6.8895151601  MEMB      73              0.0000000000
      7305        73  POPC      C29           -41.0063093474       33.3167011600        7.2796435947  MEMB      73              0.0000000000
      7306        73  POPC      H91           -41.2980997300       32.3722191213        7.7621498041  MEMB      73              0.0000000000
      7307        73  POPC      C210          -41.9413636554       34.2154881804        7.0148115222  MEMB      73              0.0000000000
      7308        73  POPC      H101          -42.9868284643       34.0163556654        7.2929296937  MEMB      73              0.0000000000
      7309        73  POPC      C211          -41.7123778826       35.6273980571        6.4169851392  MEMB      73              0.0000000000
      7310        73  POPC      H11R          -40.6367960445       35.8872219664        6.5166659866  MEMB      73              0.0000000000
      7311        73  POPC      H11S          -42.1677198353       36.2879392836        7.1855363958  MEMB      73              0.0000000000
      7312        73  POPC      C212          -42.4094933423       36.0738463382        5.0848469897  MEMB      73              0.0000000000
      7313        73  POPC      H12R          -43.4991420082       35.9315369134        5.2483561068  MEMB      73              0.0000000000
      7314        73  POPC      H12S          -42.0171819776       35.4084127793        4.2863419820  MEMB      73              0.0000000000
      7315        73  POPC      C213          -41.9981332331       37.4997736220        4.6511902882  MEMB      73              0.0000000000
      7316        73  POPC      H13R          -40.9790218184       37.3639207677        4.2301469538  MEMB      73              0.0000000000
      7317        73  POPC      H13S          -42.0097761723       38.2589837961        5.4622295574  MEMB      73              0.0000000000
      7318        73  POPC      C214          -42.9032315975       38.1019280913        3.4995102407  MEMB      73              0.0000000000
      7319        73  POPC      H14R          -43.8482437124       38.3455862956        4.0304556510  MEMB      73              0.0000000000
      7320        73  POPC      H14S          -42.9971398935       37.2225255698        2.8270853932  MEMB      73              0.0000000000
      7321        73  POPC      C215          -42.3552499810       39.3422110545        2.8184124383  MEMB      73              0.0000000000
      7322        73  POPC      H15R          -41.6583436295       39.0379526293        2.0084311093  MEMB      73              0.0000000000
      7323        73  POPC      H15S          -41.7771562428       39.9946922857        3.5071763508  MEMB      73              0.0000000000
      7324        73  POPC      C216          -43.5058617146       40.2410378696        2.2358628448  MEMB      73              0.0000000000
      7325        73  POPC      H16R          -44.3334771877       40.3822413760        2.9634858450  MEMB      73              0.0000000000
      7326        73  POPC      H16S          -44.0361698683       39.6978228027        1.4246832614  MEMB      73              0.0000000000
      7327        73  POPC      C217          -43.0024338408       41.5464224684        1.6896197032  MEMB      73              0.0000000000
      7328        73  POPC      H17R          -42.7575516520       42.2934360561        2.4746838926  MEMB      73              0.0000000000
      7329        73  POPC      H17S          -43.7652146778       42.0765724806        1.0801722813  MEMB      73              0.0000000000
      7330        73  POPC      C218          -41.6957377983       41.5909100725        0.8811153749  MEMB      73              0.0000000000
      7331        73  POPC      H18R          -40.8892466892       41.3558168835        1.6081825527  MEMB      73              0.0000000000
      7332        73  POPC      H18S          -41.5896692099       42.6253247028        0.4898912928  MEMB      73              0.0000000000
      7333        73  POPC      H18T          -41.7812678809       40.8079159959        0.0975821380  MEMB      73              0.0000000000
      7334        73  POPC      C33           -42.4307138261       38.4767571232       10.2708480295  MEMB      73              0.0000000000
      7335        73  POPC      H3X           -42.0832131706       39.1246820546       11.1037691354  MEMB      73              0.0000000000
      7336        73  POPC      H3Y           -43.5407002407       38.5230485031       10.2812496997  MEMB      73              0.0000000000
      7337        73  POPC      C34           -42.0254001461       39.2943950218        9.0059166025  MEMB      73              0.0000000000
      7338        73  POPC      H4X           -42.6210022197       40.2254425931        9.1187408796  MEMB      73              0.0000000000
      7339        73  POPC      H4Y           -42.5085504714       38.8429667436        8.1131126791  MEMB      73              0.0000000000
      7340        73  POPC      C35           -40.5337077038       39.5236943395        8.8306661290  MEMB      73              0.0000000000
      7341        73  POPC      H5X           -40.1293533957       39.6844733709        9.8529039857  MEMB      73              0.0000000000
      7342        73  POPC      H5Y           -40.4310264800       40.4963245671        8.3036296157  MEMB      73              0.0000000000
      7343        73  POPC      C36           -39.8216068205       38.2933005624        8.1907632935  MEMB      73              0.0000000000
      7344        73  POPC      H6X           -40.2654869105       37.9366875625        7.2367625066  MEMB      73              0.0000000000
      7345        73  POPC      H6Y           -39.8987066354       37.3799973441        8.8186602271  MEMB      73              0.0000000000
      7346        73  POPC      C37           -38.3488706751       38.4546609855        7.7152210253  MEMB      73              0.0000000000
      7347        73  POPC      H7X           -37.9997884927       37.4180976464        7.5202876360  MEMB      73              0.0000000000
      7348        73  POPC      H7Y           -37.7199446420       38.6712949652        8.6050768345  MEMB      73              0.0000000000
      7349        73  POPC      C38           -38.1148968794       39.5336117879        6.6890029183  MEMB      73              0.0000000000
      7350        73  POPC      H8X           -38.2018059030       40.4849360793        7.2562329572  MEMB      73              0.0000000000
      7351        73  POPC      H8Y           -38.9369543825       39.5193201487        5.9417817819  MEMB      73              0.0000000000
      7352        73  POPC      C39           -36.7430917396       39.4691873689        6.0905554616  MEMB      73              0.0000000000
      7353        73  POPC      H9X           -35.9408429637       39.8337274236        6.7671855088  MEMB      73              0.0000000000
      7354        73  POPC      H9Y           -36.7215575132       40.2125891437        5.2652003540  MEMB      73              0.0000000000
      7355        73  POPC      C310          -36.2506137159       38.1400278663        5.5563083912  MEMB      73              0.0000000000
      7356        73  POPC      H10X          -35.9590512895       37.4167825234        6.3476540281  MEMB      73              0.0000000000
      7357        73  POPC      H10Y          -35.3114625959       38.4692513885        5.0624172358  MEMB      73              0.0000000000
      7358        73  POPC      C311          -37.1810647296       37.5317185743        4.5062130471  MEMB      73              0.0000000000
      7359        73  POPC      H11X          -37.2322831368       38.0678846688        3.5345016542  MEMB      73              0.0000000000
      7360        73  POPC      H11Y          -38.2392214714       37.5630594792        4.8433232768  MEMB      73              0.0000000000
      7361        73  POPC      C312          -36.7327393678       36.0717956250        4.2643847767  MEMB      73              0.0000000000
      7362        73  POPC      H12X          -37.1723018108       35.3502086008        4.9857847830  MEMB      73              0.0000000000
      7363        73  POPC      H12Y          -35.6298700078       35.9930271133        4.3729919798  MEMB      73              0.0000000000
      7364        73  POPC      C313          -37.1188892083       35.5327351358        2.9064590024  MEMB      73              0.0000000000
      7365        73  POPC      H13X          -36.8932296742       34.4470113386        2.8386152606  MEMB      73              0.0000000000
      7366        73  POPC      H13Y          -36.4379604849       35.9883652091        2.1560864061  MEMB      73              0.0000000000
      7367        73  POPC      C314          -38.5909081389       35.7047393757        2.6785203352  MEMB      73              0.0000000000
      7368        73  POPC      H14X          -38.5577444076       35.4542349518        1.5966381330  MEMB      73              0.0000000000
      7369        73  POPC      H14Y          -38.9169538755       36.7643693345        2.7506267370  MEMB      73              0.0000000000
      7370        73  POPC      C315          -39.5990545767       34.6900802712        3.3045530913  MEMB      73              0.0000000000
      7371        73  POPC      H15X          -40.5958939578       34.9882071409        2.9149977245  MEMB      73              0.0000000000
      7372        73  POPC      H15Y          -39.7463302901       34.6734619243        4.4056230716  MEMB      73              0.0000000000
      7373        73  POPC      C316          -39.4389952094       33.1314311585        2.9713811113  MEMB      73              0.0000000000
      7374        73  POPC      H16X          -39.2883075754       33.0365021331        1.8747471766  MEMB      73              0.0000000000
      7375        73  POPC      H16Y          -40.2865959739       32.5045832880        3.3220314110  MEMB      73              0.0000000000
      7376        73  POPC      H16Z          -38.5588040279       32.7148340690        3.5062001317  MEMB      73              0.0000000000
      7377        74  POPC      N               7.6908707297      -32.0751924800       19.1899296462  MEMB      74              0.0000000000
      7378        74  POPC      C12             6.5292111597      -32.3558422132       20.2244722318  MEMB      74              0.0000000000
      7379        74  POPC      H12A            6.9655585343      -32.0950090391       21.1773451743  MEMB      74              0.0000000000
      7380        74  POPC      H12B            6.3470620077      -33.4192927400       20.2723743333  MEMB      74              0.0000000000
      7381        74  POPC      C13             7.9974069179      -30.6272023805       19.2394110901  MEMB      74              0.0000000000
      7382        74  POPC      H13A            7.1929914516      -30.0274984343       18.8398225878  MEMB      74              0.0000000000
      7383        74  POPC      H13B            8.2373188288      -30.3412618660       20.2528607133  MEMB      74              0.0000000000
      7384        74  POPC      H13C            8.8642050287      -30.4471627401       18.6208268644  MEMB      74              0.0000000000
      7385        74  POPC      C14             8.8620156507      -32.8485365078       19.6117259391  MEMB      74              0.0000000000
      7386        74  POPC      H14A            8.7945146507      -33.9111403220       19.4308478464  MEMB      74              0.0000000000
      7387        74  POPC      H14B            9.7465295439      -32.4807152891       19.1129845329  MEMB      74              0.0000000000
      7388        74  POPC      H14C            9.0172612734      -32.7240789473       20.6732384864  MEMB      74              0.0000000000
      7389        74  POPC      C15             7.2710263228      -32.4220399921       17.7937294932  MEMB      74              0.0000000000
      7390        74  POPC      H15A            6.6668540492      -33.3141501783       17.7194650341  MEMB      74              0.0000000000
      7391        74  POPC      H15B            8.1073930348      -32.2759213796       17.1262414754  MEMB      74              0.0000000000
      7392        74  POPC      H15C            6.5290722026      -31.6972202361       17.4928303400  MEMB      74              0.0000000000
      7393        74  POPC      C11             5.2595543381      -31.5664792511       20.1520392073  MEMB      74              0.0000000000
      7394        74  POPC      H11A            5.3622099721      -30.5276306412       20.5322711261  MEMB      74              0.0000000000
      7395        74  POPC      H11B            4.5361216633      -32.0554541749       20.8389669264  MEMB      74              0.0000000000
      7396        74  POPC      P               3.2251225667      -31.8052917455       18.6003112921  MEMB      74              0.0000000000
      7397        74  POPC      O13             2.5170430300      -30.8474195723       19.4529227839  MEMB      74              0.0000000000
      7398        74  POPC      O14             3.1264575121      -33.2727496704       18.8466256341  MEMB      74              0.0000000000
      7399        74  POPC      O12             4.7659152840      -31.5362505257       18.8247164454  MEMB      74              0.0000000000
      7400        74  POPC      O11             3.0122050810      -31.5076933348       17.0641162406  MEMB      74              0.0000000000
      7401        74  POPC      C1              3.7811817959      -32.3261220679       16.2277812881  MEMB      74              0.0000000000
      7402        74  POPC      HA              3.9869141855      -33.3327126584       16.6505937839  MEMB      74              0.0000000000
      7403        74  POPC      HB              4.7750981483      -31.8868005873       15.9965932718  MEMB      74              0.0000000000
      7404        74  POPC      C2              3.0358893912      -32.5584228148       14.9446042780  MEMB      74              0.0000000000
      7405        74  POPC      HS              3.7498742287      -32.8909065048       14.1610218543  MEMB      74              0.0000000000
      7406        74  POPC      O21             2.3274353533      -31.3673361769       14.6556812541  MEMB      74              0.0000000000
      7407        74  POPC      C21             2.9235691760      -30.6772199002       13.6689157734  MEMB      74              0.0000000000
      7408        74  POPC      O22             3.9543920796      -30.9941886336       13.1362658803  MEMB      74              0.0000000000
      7409        74  POPC      C22             2.1848471972      -29.4750965080       13.4063669694  MEMB      74              0.0000000000
      7410        74  POPC      H2R             2.0529183776      -28.8162627632       14.2911572606  MEMB      74              0.0000000000
      7411        74  POPC      H2S             1.1515553001      -29.7030666010       13.0677548733  MEMB      74              0.0000000000
      7412        74  POPC      C3              1.9864214403      -33.7034899443       15.0907112964  MEMB      74              0.0000000000
      7413        74  POPC      HX              1.3043500284      -33.3214051423       15.8800848526  MEMB      74              0.0000000000
      7414        74  POPC      HY              2.5620829864      -34.5683002469       15.4844595602  MEMB      74              0.0000000000
      7415        74  POPC      O31             1.1419967307      -33.7194617211       13.9114172081  MEMB      74              0.0000000000
      7416        74  POPC      C31             1.2784581529      -34.6466184802       13.0624981675  MEMB      74              0.0000000000
      7417        74  POPC      O32             2.0228519756      -35.6265881510       13.0225450891  MEMB      74              0.0000000000
      7418        74  POPC      C32             0.2627570106      -34.2388520865       11.8806382294  MEMB      74              0.0000000000
      7419        74  POPC      H2X             0.4953384263      -33.1826231833       11.6264584881  MEMB      74              0.0000000000
      7420        74  POPC      H2Y            -0.7116789462      -34.4566239246       12.3678452302  MEMB      74              0.0000000000
      7421        74  POPC      C23             2.8964684576      -28.6202254590       12.2878652047  MEMB      74              0.0000000000
      7422        74  POPC      H3R             3.9991621703      -28.6549671103       12.4189408737  MEMB      74              0.0000000000
      7423        74  POPC      H3S             2.4431607184      -27.6114318454       12.3935471646  MEMB      74              0.0000000000
      7424        74  POPC      C24             2.5849514599      -29.2173216655       10.9379244751  MEMB      74              0.0000000000
      7425        74  POPC      H4R             1.4810061435      -29.2951567815       10.8401120814  MEMB      74              0.0000000000
      7426        74  POPC      H4S             2.8615811236      -30.2933312958       10.9374014241  MEMB      74              0.0000000000
      7427        74  POPC      C25             3.2127277064      -28.3298899846        9.9160337810  MEMB      74              0.0000000000
      7428        74  POPC      H5R             4.2903599823      -28.5135135565       10.1143071579  MEMB      74              0.0000000000
      7429        74  POPC      H5S             2.7791537804      -27.3338190480       10.1487933300  MEMB      74              0.0000000000
      7430        74  POPC      C26             2.8943670848      -28.6301189629        8.5029827274  MEMB      74              0.0000000000
      7431        74  POPC      H6R             1.7990964994      -28.8102452686        8.4554676667  MEMB      74              0.0000000000
      7432        74  POPC      H6S             3.3395362303      -29.6042666748        8.2077171128  MEMB      74              0.0000000000
      7433        74  POPC      C27             3.3059037484      -27.4612465286        7.6667936608  MEMB      74              0.0000000000
      7434        74  POPC      H7R             4.3916800932      -27.2912947308        7.8296648333  MEMB      74              0.0000000000
      7435        74  POPC      H7S             2.8366232880      -26.5073115321        7.9894464001  MEMB      74              0.0000000000
      7436        74  POPC      C28             2.9688353324      -27.6711009888        6.1476445827  MEMB      74              0.0000000000
      7437        74  POPC      H8R             3.2778589299      -28.7151591355        5.9268090940  MEMB      74              0.0000000000
      7438        74  POPC      H8S             3.5017890642      -26.9360628407        5.5073318672  MEMB      74              0.0000000000
      7439        74  POPC      C29             1.4420221452      -27.7986176202        5.9861610478  MEMB      74              0.0000000000
      7440        74  POPC      H91             0.7837034131      -27.0655163990        6.4752201579  MEMB      74              0.0000000000
      7441        74  POPC      C210            0.7825328765      -28.7442723991        5.2776637429  MEMB      74              0.0000000000
      7442        74  POPC      H101           -0.3166049389      -28.7688950934        5.2417486917  MEMB      74              0.0000000000
      7443        74  POPC      C211            1.4053112341      -29.8642130110        4.4717024049  MEMB      74              0.0000000000
      7444        74  POPC      H11R            2.4648205953      -29.6935624303        4.1842319602  MEMB      74              0.0000000000
      7445        74  POPC      H11S            0.7929024457      -29.9573975111        3.5494265608  MEMB      74              0.0000000000
      7446        74  POPC      C212            1.1871637867      -31.1699054051        5.1421728252  MEMB      74              0.0000000000
      7447        74  POPC      H12R            0.1105872408      -31.3754633000        5.3239688196  MEMB      74              0.0000000000
      7448        74  POPC      H12S            1.7635152633      -31.1858544857        6.0918499112  MEMB      74              0.0000000000
      7449        74  POPC      C213            1.8963147979      -32.3049311014        4.3068648052  MEMB      74              0.0000000000
      7450        74  POPC      H13R            1.7317105777      -33.3430294338        4.6668347463  MEMB      74              0.0000000000
      7451        74  POPC      H13S            2.9793703764      -32.0605007345        4.3464291490  MEMB      74              0.0000000000
      7452        74  POPC      C214            1.4511782973      -32.3856096647        2.7478942651  MEMB      74              0.0000000000
      7453        74  POPC      H14R            1.8510810677      -31.4939410867        2.2193811657  MEMB      74              0.0000000000
      7454        74  POPC      H14S            0.3537463428      -32.3332766391        2.5828916100  MEMB      74              0.0000000000
      7455        74  POPC      C215            2.0060839469      -33.6503688422        2.0761702896  MEMB      74              0.0000000000
      7456        74  POPC      H15R            1.5051154653      -34.5584989464        2.4744816067  MEMB      74              0.0000000000
      7457        74  POPC      H15S            3.1012842649      -33.7115166626        2.2525757782  MEMB      74              0.0000000000
      7458        74  POPC      C216            1.7441155950      -33.5857159801        0.5470545461  MEMB      74              0.0000000000
      7459        74  POPC      H16R            1.6218624126      -32.5701628520        0.1134341383  MEMB      74              0.0000000000
      7460        74  POPC      H16S            0.7954040271      -34.1060362063        0.2949954774  MEMB      74              0.0000000000
      7461        74  POPC      C217            2.8393225021      -34.2320854035       -0.4330776213  MEMB      74              0.0000000000
      7462        74  POPC      H17R            2.9756485749      -35.3031776257       -0.1713560352  MEMB      74              0.0000000000
      7463        74  POPC      H17S            3.7902473985      -33.6912396656       -0.2393035537  MEMB      74              0.0000000000
      7464        74  POPC      C218            2.6094801654      -34.3760858113       -1.9275812687  MEMB      74              0.0000000000
      7465        74  POPC      H18R            1.5134521901      -34.4730965820       -2.0813130998  MEMB      74              0.0000000000
      7466        74  POPC      H18S            3.0238650361      -35.3285370252       -2.3218438676  MEMB      74              0.0000000000
      7467        74  POPC      H18T            3.0353379328      -33.4908630929       -2.4465675219  MEMB      74              0.0000000000
      7468        74  POPC      C33             0.3458449672      -35.2345964790       10.6790381281  MEMB      74              0.0000000000
      7469        74  POPC      H3X            -0.4479718778      -34.8724158002        9.9912871708  MEMB      74              0.0000000000
      7470        74  POPC      H3Y             0.0444734673      -36.1933210147       11.1526871586  MEMB      74              0.0000000000
      7471        74  POPC      C34             1.5233099869      -35.2697154125        9.7500934446  MEMB      74              0.0000000000
      7472        74  POPC      H4X             1.3898636526      -35.9764685125        8.9033270200  MEMB      74              0.0000000000
      7473        74  POPC      H4Y             2.4001198658      -35.7209550654       10.2618627062  MEMB      74              0.0000000000
      7474        74  POPC      C35             2.0225538022      -33.9750877249        9.1574121323  MEMB      74              0.0000000000
      7475        74  POPC      H5X             2.3519614266      -33.2109898811        9.8935960087  MEMB      74              0.0000000000
      7476        74  POPC      H5Y             1.2530585762      -33.3905784986        8.6091906045  MEMB      74              0.0000000000
      7477        74  POPC      C36             3.1871882830      -34.2101146947        8.2295016000  MEMB      74              0.0000000000
      7478        74  POPC      H6X             2.6752854719      -34.4947126949        7.2854248815  MEMB      74              0.0000000000
      7479        74  POPC      H6Y             3.8225753087      -35.0389726659        8.6084461533  MEMB      74              0.0000000000
      7480        74  POPC      C37             4.1273970169      -33.0048994481        8.0055950266  MEMB      74              0.0000000000
      7481        74  POPC      H7X             4.5067960315      -32.6088033163        8.9717648141  MEMB      74              0.0000000000
      7482        74  POPC      H7Y             3.5495771842      -32.2373821295        7.4475967921  MEMB      74              0.0000000000
      7483        74  POPC      C38             5.4186209562      -33.3847869602        7.1878123495  MEMB      74              0.0000000000
      7484        74  POPC      H8X             5.1726833614      -33.4589908802        6.1069197925  MEMB      74              0.0000000000
      7485        74  POPC      H8Y             5.6420694535      -34.4120810170        7.5470598388  MEMB      74              0.0000000000
      7486        74  POPC      C39             6.5703326136      -32.3486347836        7.4118737143  MEMB      74              0.0000000000
      7487        74  POPC      H9X             7.3658392578      -32.4999386854        6.6512175410  MEMB      74              0.0000000000
      7488        74  POPC      H9Y             6.9263867364      -32.5149468930        8.4510492343  MEMB      74              0.0000000000
      7489        74  POPC      C310            6.1589448698      -30.9231294984        7.0526285814  MEMB      74              0.0000000000
      7490        74  POPC      H10X            7.0375733455      -30.2654562650        7.2252536300  MEMB      74              0.0000000000
      7491        74  POPC      H10Y            5.3328303721      -30.6971804851        7.7603027713  MEMB      74              0.0000000000
      7492        74  POPC      C311            5.7752015139      -30.6458906212        5.6086619638  MEMB      74              0.0000000000
      7493        74  POPC      H11X            5.4632526225      -29.5859612071        5.4922217143  MEMB      74              0.0000000000
      7494        74  POPC      H11Y            4.9895568564      -31.3197099863        5.2048672142  MEMB      74              0.0000000000
      7495        74  POPC      C312            6.9100659354      -30.7848559258        4.6270920441  MEMB      74              0.0000000000
      7496        74  POPC      H12X            7.2038899528      -31.8516443995        4.5273369302  MEMB      74              0.0000000000
      7497        74  POPC      H12Y            7.7547476744      -30.3123247242        5.1725719585  MEMB      74              0.0000000000
      7498        74  POPC      C313            6.6323966971      -30.0752149389        3.3067879083  MEMB      74              0.0000000000
      7499        74  POPC      H13X            7.5670474428      -30.1711041219        2.7138673571  MEMB      74              0.0000000000
      7500        74  POPC      H13Y            6.3264288784      -29.0131073206        3.4191834981  MEMB      74              0.0000000000
      7501        74  POPC      C314            5.4922873908      -30.6427103721        2.4229064411  MEMB      74              0.0000000000
      7502        74  POPC      H14X            4.4944858634      -30.6450802307        2.9114833647  MEMB      74              0.0000000000
      7503        74  POPC      H14Y            5.7088372860      -31.6795368091        2.0876175502  MEMB      74              0.0000000000
      7504        74  POPC      C315            5.2138564636      -29.8009574386        1.1138767791  MEMB      74              0.0000000000
      7505        74  POPC      H15X            6.2188482881      -29.6593213701        0.6619344550  MEMB      74              0.0000000000
      7506        74  POPC      H15Y            4.8680729308      -28.7994643745        1.4481912635  MEMB      74              0.0000000000
      7507        74  POPC      C316            4.2295705331      -30.4831505225        0.0943111026  MEMB      74              0.0000000000
      7508        74  POPC      H16X            4.7798385568      -31.2998374764       -0.4200319900  MEMB      74              0.0000000000
      7509        74  POPC      H16Y            3.9963099578      -29.6885271867       -0.6462867527  MEMB      74              0.0000000000
      7510        74  POPC      H16Z            3.3941134182      -31.0122065920        0.6007029815  MEMB      74              0.0000000000
      7511        75  POPC      N              11.8406303271      -26.7494492992       20.5148327907  MEMB      75              0.0000000000
      7512        75  POPC      C12            12.7030201391      -27.9297665052       20.8552083140  MEMB      75              0.0000000000
      7513        75  POPC      H12A           12.0603931973      -28.4947967303       21.5141250390  MEMB      75              0.0000000000
      7514        75  POPC      H12B           13.5627585916      -27.5889464373       21.4129642733  MEMB      75              0.0000000000
      7515        75  POPC      C13            11.3964029701      -26.0556246930       21.7816531691  MEMB      75              0.0000000000
      7516        75  POPC      H13A           10.8344203603      -26.7936132688       22.3347789825  MEMB      75              0.0000000000
      7517        75  POPC      H13B           12.3100318984      -25.8040695414       22.2997285446  MEMB      75              0.0000000000
      7518        75  POPC      H13C           10.8506632168      -25.1384907541       21.6160219550  MEMB      75              0.0000000000
      7519        75  POPC      C14            12.5602558062      -25.7793628934       19.6483465189  MEMB      75              0.0000000000
      7520        75  POPC      H14A           13.0056635499      -26.1720763375       18.7462444572  MEMB      75              0.0000000000
      7521        75  POPC      H14B           11.8050686192      -25.1201511486       19.2464361602  MEMB      75              0.0000000000
      7522        75  POPC      H14C           13.2282323509      -25.1640332884       20.2327924255  MEMB      75              0.0000000000
      7523        75  POPC      C15            10.6475421327      -27.3156915556       19.8291665917  MEMB      75              0.0000000000
      7524        75  POPC      H15A            9.8339589978      -26.6318114715       19.6373581964  MEMB      75              0.0000000000
      7525        75  POPC      H15B           10.1682033498      -28.0790482115       20.4240792802  MEMB      75              0.0000000000
      7526        75  POPC      H15C           10.9666598031      -27.6847233592       18.8656421537  MEMB      75              0.0000000000
      7527        75  POPC      C11            13.1075291569      -28.9413538181       19.7231155102  MEMB      75              0.0000000000
      7528        75  POPC      H11A           12.2125359014      -29.5109609120       19.3931824310  MEMB      75              0.0000000000
      7529        75  POPC      H11B           13.7938936500      -29.6973114941       20.1610115636  MEMB      75              0.0000000000
      7530        75  POPC      P              13.7787554246      -29.0213079927       17.2639708708  MEMB      75              0.0000000000
      7531        75  POPC      O13            14.4549534126      -30.3510570676       17.4672331155  MEMB      75              0.0000000000
      7532        75  POPC      O14            14.4313362268      -28.0643283629       16.3340180210  MEMB      75              0.0000000000
      7533        75  POPC      O12            13.7500934723      -28.1884308593       18.7088306688  MEMB      75              0.0000000000
      7534        75  POPC      O11            12.2293708582      -29.1824567528       16.8736244273  MEMB      75              0.0000000000
      7535        75  POPC      C1             11.5798504999      -27.9882945360       16.4818940579  MEMB      75              0.0000000000
      7536        75  POPC      HA             12.0671331227      -27.5482564247       15.5856556695  MEMB      75              0.0000000000
      7537        75  POPC      HB             11.6321163777      -27.2593099336       17.3186560461  MEMB      75              0.0000000000
      7538        75  POPC      C2             10.1289957665      -28.2843031522       16.2905820766  MEMB      75              0.0000000000
      7539        75  POPC      HS              9.8801444195      -28.9390918650       17.1529310759  MEMB      75              0.0000000000
      7540        75  POPC      O21             9.9343894429      -29.0259279439       15.1436698130  MEMB      75              0.0000000000
      7541        75  POPC      C21             8.8373054682      -29.8016768520       14.9719057270  MEMB      75              0.0000000000
      7542        75  POPC      O22             7.9482122608      -30.0311192903       15.8050835111  MEMB      75              0.0000000000
      7543        75  POPC      C22             8.8271917517      -30.5159672084       13.5745324907  MEMB      75              0.0000000000
      7544        75  POPC      H2R             7.9815216145      -30.1672107330       12.9440312741  MEMB      75              0.0000000000
      7545        75  POPC      H2S             8.6355583850      -31.5738092237       13.8548324267  MEMB      75              0.0000000000
      7546        75  POPC      C3              9.2502377927      -27.0507920281       16.1596632460  MEMB      75              0.0000000000
      7547        75  POPC      HX              9.2973993148      -26.4478230807       17.0916100819  MEMB      75              0.0000000000
      7548        75  POPC      HY              8.2444705931      -27.4433022082       15.8975770726  MEMB      75              0.0000000000
      7549        75  POPC      O31             9.5875812856      -26.1982234079       15.0140270036  MEMB      75              0.0000000000
      7550        75  POPC      C31            10.0871611943      -24.9945055938       15.1950405294  MEMB      75              0.0000000000
      7551        75  POPC      O32            10.4580212748      -24.5346756056       16.2910751050  MEMB      75              0.0000000000
      7552        75  POPC      C32            10.4394248663      -24.4343207106       13.7744262911  MEMB      75              0.0000000000
      7553        75  POPC      H2X            10.6283270843      -23.3422005481       13.8513036396  MEMB      75              0.0000000000
      7554        75  POPC      H2Y             9.5222550942      -24.4961309942       13.1504871789  MEMB      75              0.0000000000
      7555        75  POPC      C23            10.1195184183      -30.1936905938       12.8083135701  MEMB      75              0.0000000000
      7556        75  POPC      H3R            11.0016528084      -30.2462795658       13.4816594778  MEMB      75              0.0000000000
      7557        75  POPC      H3S             9.9907770005      -29.2695562861       12.2052199905  MEMB      75              0.0000000000
      7558        75  POPC      C24            10.3630965201      -31.3747183907       11.8123009984  MEMB      75              0.0000000000
      7559        75  POPC      H4R            10.4897891331      -32.2952681405       12.4212825678  MEMB      75              0.0000000000
      7560        75  POPC      H4S            11.2688448429      -31.2294982210       11.1855217201  MEMB      75              0.0000000000
      7561        75  POPC      C25             9.2061845572      -31.5751411911       10.7786123149  MEMB      75              0.0000000000
      7562        75  POPC      H5R             8.9737404378      -30.5640831023       10.3810549149  MEMB      75              0.0000000000
      7563        75  POPC      H5S             8.3008031590      -32.0871977137       11.1690017027  MEMB      75              0.0000000000
      7564        75  POPC      C26             9.5768673759      -32.4953793098        9.6007267063  MEMB      75              0.0000000000
      7565        75  POPC      H6R             8.6035935892      -32.8321796047        9.1840436753  MEMB      75              0.0000000000
      7566        75  POPC      H6S            10.0740255232      -33.4426483267        9.9004536962  MEMB      75              0.0000000000
      7567        75  POPC      C27            10.5317515829      -31.8376847421        8.5465274250  MEMB      75              0.0000000000
      7568        75  POPC      H7R            11.4386472869      -31.4926925349        9.0876765846  MEMB      75              0.0000000000
      7569        75  POPC      H7S            10.0163704623      -30.9136102968        8.2077217001  MEMB      75              0.0000000000
      7570        75  POPC      C28            10.9322083030      -32.7438724064        7.3300024276  MEMB      75              0.0000000000
      7571        75  POPC      H8R            11.3520407501      -33.6467015593        7.8229138180  MEMB      75              0.0000000000
      7572        75  POPC      H8S            11.7465303592      -32.2199778349        6.7852683608  MEMB      75              0.0000000000
      7573        75  POPC      C29             9.7338315828      -33.3443887773        6.5927118501  MEMB      75              0.0000000000
      7574        75  POPC      H91             8.9144416443      -33.7335196489        7.2149469178  MEMB      75              0.0000000000
      7575        75  POPC      C210            9.4574341046      -33.1539362362        5.2489397095  MEMB      75              0.0000000000
      7576        75  POPC      H101            8.5817690713      -33.6579496036        4.8139916136  MEMB      75              0.0000000000
      7577        75  POPC      C211           10.3799633555      -32.3486284439        4.3323680234  MEMB      75              0.0000000000
      7578        75  POPC      H11R           11.1215172318      -31.7749265122        4.9284265751  MEMB      75              0.0000000000
      7579        75  POPC      H11S            9.8205527087      -31.4919818470        3.8993127433  MEMB      75              0.0000000000
      7580        75  POPC      C212           11.1043263976      -33.0984181790        3.2600383738  MEMB      75              0.0000000000
      7581        75  POPC      H12R           10.3167402992      -33.5345372086        2.6090162954  MEMB      75              0.0000000000
      7582        75  POPC      H12S           11.8234405822      -33.7714330539        3.7740871836  MEMB      75              0.0000000000
      7583        75  POPC      C213           11.9537925243      -32.3166199497        2.2225539879  MEMB      75              0.0000000000
      7584        75  POPC      H13R           12.5349110482      -32.9879464274        1.5547630586  MEMB      75              0.0000000000
      7585        75  POPC      H13S           12.6510456126      -31.6550548096        2.7797693882  MEMB      75              0.0000000000
      7586        75  POPC      C214           11.1220327951      -31.2751615150        1.3848565202  MEMB      75              0.0000000000
      7587        75  POPC      H14R           11.9004406223      -30.8537968024        0.7133995759  MEMB      75              0.0000000000
      7588        75  POPC      H14S           10.7618627827      -30.4708146923        2.0613356901  MEMB      75              0.0000000000
      7589        75  POPC      C215            9.9094295483      -31.8742309542        0.6250392307  MEMB      75              0.0000000000
      7590        75  POPC      H15R            9.1179277664      -32.1129324472        1.3672427692  MEMB      75              0.0000000000
      7591        75  POPC      H15S           10.2569163276      -32.8278607727        0.1731945767  MEMB      75              0.0000000000
      7592        75  POPC      C216            9.3609465646      -30.8982527370       -0.3846476524  MEMB      75              0.0000000000
      7593        75  POPC      H16R            9.2045027713      -29.9360594627        0.1482983898  MEMB      75              0.0000000000
      7594        75  POPC      H16S            8.3220514370      -31.2096100429       -0.6256332770  MEMB      75              0.0000000000
      7595        75  POPC      C217           10.2198957941      -30.6268663794       -1.6095691680  MEMB      75              0.0000000000
      7596        75  POPC      H17R           11.2553181473      -30.3049505968       -1.3675120484  MEMB      75              0.0000000000
      7597        75  POPC      H17S            9.7427148887      -29.7358934866       -2.0708562158  MEMB      75              0.0000000000
      7598        75  POPC      C218           10.2086292552      -31.6843730250       -2.7575033889  MEMB      75              0.0000000000
      7599        75  POPC      H18R            9.1482672762      -31.8737088084       -3.0297293404  MEMB      75              0.0000000000
      7600        75  POPC      H18S           10.7578762523      -32.5493765818       -2.3280662577  MEMB      75              0.0000000000
      7601        75  POPC      H18T           10.7710974688      -31.3086692992       -3.6388651593  MEMB      75              0.0000000000
      7602        75  POPC      C33            11.5228101436      -25.2533207278       13.1736589544  MEMB      75              0.0000000000
      7603        75  POPC      H3X            11.2485089841      -26.3241131043       13.0619288177  MEMB      75              0.0000000000
      7604        75  POPC      H3Y            12.4145986871      -25.1366193295       13.8258978629  MEMB      75              0.0000000000
      7605        75  POPC      C34            11.8311172883      -25.0249744581       11.6686410183  MEMB      75              0.0000000000
      7606        75  POPC      H4X            12.6786943247      -25.6569882135       11.3273310383  MEMB      75              0.0000000000
      7607        75  POPC      H4Y            12.1471691903      -23.9760277961       11.4838624185  MEMB      75              0.0000000000
      7608        75  POPC      C35            10.7358310081      -25.3677171042       10.6861314809  MEMB      75              0.0000000000
      7609        75  POPC      H5X             9.8762997404      -24.6706692729       10.7843737670  MEMB      75              0.0000000000
      7610        75  POPC      H5Y            10.2889246020      -26.3614109133       10.9033135888  MEMB      75              0.0000000000
      7611        75  POPC      C36            11.3125227066      -25.3376162070        9.2192200459  MEMB      75              0.0000000000
      7612        75  POPC      H6X            10.6328557499      -25.8803300046        8.5279638608  MEMB      75              0.0000000000
      7613        75  POPC      H6Y            12.2601154998      -25.9082334802        9.3230687757  MEMB      75              0.0000000000
      7614        75  POPC      C37            11.7087128050      -23.9958492891        8.6160289734  MEMB      75              0.0000000000
      7615        75  POPC      H7X            12.4250135170      -23.4349671787        9.2537165661  MEMB      75              0.0000000000
      7616        75  POPC      H7Y            10.8169675413      -23.3456541755        8.4881297302  MEMB      75              0.0000000000
      7617        75  POPC      C38            12.2082859728      -24.0912034027        7.1871826809  MEMB      75              0.0000000000
      7618        75  POPC      H8X            13.0603453352      -24.8040338629        7.2009237226  MEMB      75              0.0000000000
      7619        75  POPC      H8Y            12.6647682188      -23.1361683503        6.8497615379  MEMB      75              0.0000000000
      7620        75  POPC      C39            11.0955805675      -24.6361166804        6.2518727688  MEMB      75              0.0000000000
      7621        75  POPC      H9X            10.2091184674      -23.9748580891        6.3579054543  MEMB      75              0.0000000000
      7622        75  POPC      H9Y            10.8993047508      -25.7048873053        6.4832302031  MEMB      75              0.0000000000
      7623        75  POPC      C310           11.6144290293      -24.4767562127        4.7315680250  MEMB      75              0.0000000000
      7624        75  POPC      H10X           12.0665586038      -23.4622292788        4.7063611265  MEMB      75              0.0000000000
      7625        75  POPC      H10Y           10.8080543133      -24.4373967767        3.9683304203  MEMB      75              0.0000000000
      7626        75  POPC      C311           12.6326099357      -25.4633707446        4.0709807587  MEMB      75              0.0000000000
      7627        75  POPC      H11X           13.5056386356      -25.5864187654        4.7469990815  MEMB      75              0.0000000000
      7628        75  POPC      H11Y           12.9190159372      -25.0434336074        3.0830807281  MEMB      75              0.0000000000
      7629        75  POPC      C312           12.1112954571      -26.9067632294        3.7904110151  MEMB      75              0.0000000000
      7630        75  POPC      H12X           11.3087782530      -26.9572828212        3.0237721865  MEMB      75              0.0000000000
      7631        75  POPC      H12Y           11.6137829582      -27.2032322647        4.7385188464  MEMB      75              0.0000000000
      7632        75  POPC      C313           13.0762740100      -27.8721093854        3.1246527662  MEMB      75              0.0000000000
      7633        75  POPC      H13X           13.1705227441      -27.6304864422        2.0443487060  MEMB      75              0.0000000000
      7634        75  POPC      H13Y           12.6878317548      -28.9122276439        3.1644988800  MEMB      75              0.0000000000
      7635        75  POPC      C314           14.3576009356      -27.9444868311        3.9630711634  MEMB      75              0.0000000000
      7636        75  POPC      H14X           14.2089179052      -27.6594688245        5.0265458851  MEMB      75              0.0000000000
      7637        75  POPC      H14Y           15.0850113173      -27.2656435851        3.4687360538  MEMB      75              0.0000000000
      7638        75  POPC      C315           14.9815215340      -29.3399568394        3.9721500752  MEMB      75              0.0000000000
      7639        75  POPC      H15X           14.2740279180      -30.0997949360        4.3676498791  MEMB      75              0.0000000000
      7640        75  POPC      H15Y           15.8090443496      -29.3901250006        4.7117503647  MEMB      75              0.0000000000
      7641        75  POPC      C316           15.5032942266      -29.7538693542        2.6003658939  MEMB      75              0.0000000000
      7642        75  POPC      H16X           16.1024867908      -30.6886218149        2.6394397363  MEMB      75              0.0000000000
      7643        75  POPC      H16Y           16.1757636698      -28.9432990194        2.2466968593  MEMB      75              0.0000000000
      7644        75  POPC      H16Z           14.6490038862      -29.8786929640        1.9011327350  MEMB      75              0.0000000000
      7645        76  POPC      N             -36.9618881268       11.7927135988       20.4907933576  MEMB      76              0.0000000000
      7646        76  POPC      C12           -37.4266722172       11.1804348243       19.2051392055  MEMB      76              0.0000000000
      7647        76  POPC      H12A          -37.9675351548       10.2894676840       19.4880611531  MEMB      76              0.0000000000
      7648        76  POPC      H12B          -36.5802498832       10.8201080862       18.6393354383  MEMB      76              0.0000000000
      7649        76  POPC      C13           -38.1615838130       12.2399864293       21.3083437306  MEMB      76              0.0000000000
      7650        76  POPC      H13A          -37.9794663051       12.2918581952       22.3716136383  MEMB      76              0.0000000000
      7651        76  POPC      H13B          -38.7227834300       13.0588483359       20.8829966357  MEMB      76              0.0000000000
      7652        76  POPC      H13C          -38.8859271010       11.4463203967       21.1996190448  MEMB      76              0.0000000000
      7653        76  POPC      C14           -36.2229332593       10.7217973017       21.3330762540  MEMB      76              0.0000000000
      7654        76  POPC      H14A          -35.7746168674       11.1645808359       22.2102050140  MEMB      76              0.0000000000
      7655        76  POPC      H14B          -36.8902338369        9.9513334667       21.6901411162  MEMB      76              0.0000000000
      7656        76  POPC      H14C          -35.4303630832       10.3326230251       20.7111630333  MEMB      76              0.0000000000
      7657        76  POPC      C15           -36.0781993978       12.9787436795       20.2238393672  MEMB      76              0.0000000000
      7658        76  POPC      H15A          -35.6700367454       13.3867326617       21.1367184103  MEMB      76              0.0000000000
      7659        76  POPC      H15B          -36.6008698434       13.7886130818       19.7366770106  MEMB      76              0.0000000000
      7660        76  POPC      H15C          -35.2896951096       12.6124901157       19.5831214843  MEMB      76              0.0000000000
      7661        76  POPC      C11           -38.1964454272       12.0606304251       18.2182361987  MEMB      76              0.0000000000
      7662        76  POPC      H11A          -38.2886601989       11.3886233356       17.3383362625  MEMB      76              0.0000000000
      7663        76  POPC      H11B          -37.5973581626       12.9438747556       17.9095376803  MEMB      76              0.0000000000
      7664        76  POPC      P             -40.4840919852       13.0553678304       17.6710798115  MEMB      76              0.0000000000
      7665        76  POPC      O13           -39.7992397695       14.1677210965       16.8677859366  MEMB      76              0.0000000000
      7666        76  POPC      O14           -41.8338417387       13.4261084033       18.1939615906  MEMB      76              0.0000000000
      7667        76  POPC      O12           -39.5242106434       12.2831868193       18.7129639767  MEMB      76              0.0000000000
      7668        76  POPC      O11           -40.7595062338       11.7906867840       16.7747805505  MEMB      76              0.0000000000
      7669        76  POPC      C1            -41.5453561853       10.6839266387       17.2209209258  MEMB      76              0.0000000000
      7670        76  POPC      HA            -42.6283160670       10.9119446628       17.3185271115  MEMB      76              0.0000000000
      7671        76  POPC      HB            -41.1121509258       10.3783610946       18.1972835263  MEMB      76              0.0000000000
      7672        76  POPC      C2            -41.3749362253        9.3680074380       16.3340468871  MEMB      76              0.0000000000
      7673        76  POPC      HS            -41.1807290798        8.5215065479       17.0268965467  MEMB      76              0.0000000000
      7674        76  POPC      O21           -40.2827894282        9.4824775542       15.4331545501  MEMB      76              0.0000000000
      7675        76  POPC      C21           -39.1279446433        9.0225302810       15.8616745292  MEMB      76              0.0000000000
      7676        76  POPC      O22           -38.9195970624        8.7736446752       17.0386995771  MEMB      76              0.0000000000
      7677        76  POPC      C22           -38.0842899056        8.6368012293       14.7171216725  MEMB      76              0.0000000000
      7678        76  POPC      H2R           -37.9997257547        7.5465009440       14.5211239086  MEMB      76              0.0000000000
      7679        76  POPC      H2S           -37.0971886284        8.9142185709       15.1448970764  MEMB      76              0.0000000000
      7680        76  POPC      C3            -42.5891820777        8.9049196558       15.5148977954  MEMB      76              0.0000000000
      7681        76  POPC      HX            -43.4424138224        8.9876517678       16.2216315058  MEMB      76              0.0000000000
      7682        76  POPC      HY            -42.4187118682        7.8519047812       15.2043801304  MEMB      76              0.0000000000
      7683        76  POPC      O31           -42.8669153714        9.9240395452       14.5358157224  MEMB      76              0.0000000000
      7684        76  POPC      C31           -42.3548332826        9.6755646262       13.3336395986  MEMB      76              0.0000000000
      7685        76  POPC      O32           -41.8775668097        8.5943453304       12.9447001559  MEMB      76              0.0000000000
      7686        76  POPC      C32           -42.7740684983       10.8939634899       12.5274927405  MEMB      76              0.0000000000
      7687        76  POPC      H2X           -43.8264841658       11.0790902995       12.8315824464  MEMB      76              0.0000000000
      7688        76  POPC      H2Y           -42.7888584781       10.6758168468       11.4382199598  MEMB      76              0.0000000000
      7689        76  POPC      C23           -38.4480843325        9.4741623293       13.4866123322  MEMB      76              0.0000000000
      7690        76  POPC      H3R           -38.3122273671       10.5186069297       13.8401647964  MEMB      76              0.0000000000
      7691        76  POPC      H3S           -39.4340678356        9.2847287430       13.0109316720  MEMB      76              0.0000000000
      7692        76  POPC      C24           -37.4555281749        9.3029150275       12.3157053947  MEMB      76              0.0000000000
      7693        76  POPC      H4R           -37.4594916363        8.2603031392       11.9319534101  MEMB      76              0.0000000000
      7694        76  POPC      H4S           -36.4493760303        9.3743093159       12.7814107170  MEMB      76              0.0000000000
      7695        76  POPC      C25           -37.5923142679       10.2847109620       11.1908540339  MEMB      76              0.0000000000
      7696        76  POPC      H5R           -37.3396504532       11.3093550134       11.5381099001  MEMB      76              0.0000000000
      7697        76  POPC      H5S           -38.5978150668       10.3418449725       10.7217858685  MEMB      76              0.0000000000
      7698        76  POPC      C26           -36.7165249249        9.7696348383       10.0274882154  MEMB      76              0.0000000000
      7699        76  POPC      H6R           -35.9868757395        9.0918284441       10.5199423563  MEMB      76              0.0000000000
      7700        76  POPC      H6S           -36.1799151433       10.5454445130        9.4405548816  MEMB      76              0.0000000000
      7701        76  POPC      C27           -37.4621330938        8.9086433069        8.9979328624  MEMB      76              0.0000000000
      7702        76  POPC      H7R           -38.3100813810        8.3535818852        9.4531378375  MEMB      76              0.0000000000
      7703        76  POPC      H7S           -36.7611068098        8.1788301788        8.5393961799  MEMB      76              0.0000000000
      7704        76  POPC      C28           -38.1563948923        9.7570327407        7.9258174054  MEMB      76              0.0000000000
      7705        76  POPC      H8R           -37.3646276035       10.3871184014        7.4671040523  MEMB      76              0.0000000000
      7706        76  POPC      H8S           -38.9187075482       10.4004597265        8.4149001679  MEMB      76              0.0000000000
      7707        76  POPC      C29           -38.5906605878        8.9097601296        6.6852512396  MEMB      76              0.0000000000
      7708        76  POPC      H91           -37.8102165123        8.5264733229        6.0114575425  MEMB      76              0.0000000000
      7709        76  POPC      C210          -39.8174302629        8.3735484136        6.4906452038  MEMB      76              0.0000000000
      7710        76  POPC      H101          -39.9545274056        7.7290472360        5.6098367583  MEMB      76              0.0000000000
      7711        76  POPC      C211          -41.0459480490        8.4877237027        7.4065541955  MEMB      76              0.0000000000
      7712        76  POPC      H11R          -40.8581997205        9.3254435029        8.1117470682  MEMB      76              0.0000000000
      7713        76  POPC      H11S          -41.1436304125        7.5014619566        7.9086168204  MEMB      76              0.0000000000
      7714        76  POPC      C212          -42.3722739323        8.8382702654        6.6791007210  MEMB      76              0.0000000000
      7715        76  POPC      H12R          -43.0985996127        9.0816263380        7.4838056655  MEMB      76              0.0000000000
      7716        76  POPC      H12S          -42.7563019610        7.9386864892        6.1522299793  MEMB      76              0.0000000000
      7717        76  POPC      C213          -42.2535994818        9.8931517701        5.5868064376  MEMB      76              0.0000000000
      7718        76  POPC      H13R          -41.7364014802        9.4421028315        4.7130896104  MEMB      76              0.0000000000
      7719        76  POPC      H13S          -41.6507598046       10.7118989059        6.0346438647  MEMB      76              0.0000000000
      7720        76  POPC      C214          -43.6009249971       10.4104853702        5.0331673903  MEMB      76              0.0000000000
      7721        76  POPC      H14R          -44.1489210325       10.7676073238        5.9312126681  MEMB      76              0.0000000000
      7722        76  POPC      H14S          -44.2246658058        9.6148261777        4.5725223168  MEMB      76              0.0000000000
      7723        76  POPC      C215          -43.4714649967       11.7104889721        4.2280468780  MEMB      76              0.0000000000
      7724        76  POPC      H15R          -42.8604842479       12.3125090479        4.9341601169  MEMB      76              0.0000000000
      7725        76  POPC      H15S          -44.3831712205       12.3334519830        4.1054499013  MEMB      76              0.0000000000
      7726        76  POPC      C216          -42.7692410293       11.6240745022        2.9014529093  MEMB      76              0.0000000000
      7727        76  POPC      H16R          -41.7550114175       11.1855920232        3.0171761650  MEMB      76              0.0000000000
      7728        76  POPC      H16S          -42.7349225253       12.6668360972        2.5196255724  MEMB      76              0.0000000000
      7729        76  POPC      C217          -43.5999360152       10.8271327244        1.8763606725  MEMB      76              0.0000000000
      7730        76  POPC      H17R          -44.5420972293       11.3685719188        1.6450678429  MEMB      76              0.0000000000
      7731        76  POPC      H17S          -43.8009700104        9.8142995080        2.2863312783  MEMB      76              0.0000000000
      7732        76  POPC      C218          -42.8025146014       10.5072416947        0.6168257721  MEMB      76              0.0000000000
      7733        76  POPC      H18R          -43.1802613525        9.8296245494       -0.1784482548  MEMB      76              0.0000000000
      7734        76  POPC      H18S          -41.7846847964       10.1152595944        0.8282347227  MEMB      76              0.0000000000
      7735        76  POPC      H18T          -42.5830866457       11.4392351218        0.0533010624  MEMB      76              0.0000000000
      7736        76  POPC      C33           -41.8503776350       12.0831606337       12.9788372456  MEMB      76              0.0000000000
      7737        76  POPC      H3X           -40.8004626900       11.7654835152       12.8025399966  MEMB      76              0.0000000000
      7738        76  POPC      H3Y           -41.7669717891       12.2043610368       14.0800522076  MEMB      76              0.0000000000
      7739        76  POPC      C34           -42.1475190822       13.4358969910       12.3642577538  MEMB      76              0.0000000000
      7740        76  POPC      H4X           -41.3666495411       14.1494403311       12.7039925801  MEMB      76              0.0000000000
      7741        76  POPC      H4Y           -43.0754108162       13.8847291996       12.7788511917  MEMB      76              0.0000000000
      7742        76  POPC      C35           -42.2142934944       13.5219278040       10.8111689403  MEMB      76              0.0000000000
      7743        76  POPC      H5X           -43.0408960101       12.9158034258       10.3826108957  MEMB      76              0.0000000000
      7744        76  POPC      H5Y           -41.2405067216       13.1085312103       10.4718119082  MEMB      76              0.0000000000
      7745        76  POPC      C36           -42.1461093569       14.8612247467       10.1143799833  MEMB      76              0.0000000000
      7746        76  POPC      H6X           -41.1557615702       15.3528856159       10.2230150445  MEMB      76              0.0000000000
      7747        76  POPC      H6Y           -42.9233792792       15.4663854058       10.6281441359  MEMB      76              0.0000000000
      7748        76  POPC      C37           -42.3843219731       14.7632746939        8.6219872481  MEMB      76              0.0000000000
      7749        76  POPC      H7X           -42.6334070160       15.7595529295        8.1980690562  MEMB      76              0.0000000000
      7750        76  POPC      H7Y           -43.3308627076       14.1939251029        8.5027296710  MEMB      76              0.0000000000
      7751        76  POPC      C38           -41.2638225946       14.2378482488        7.7680902541  MEMB      76              0.0000000000
      7752        76  POPC      H8X           -41.7208256501       14.0606627756        6.7710567757  MEMB      76              0.0000000000
      7753        76  POPC      H8Y           -40.8995370325       13.2615301799        8.1533432102  MEMB      76              0.0000000000
      7754        76  POPC      C39           -40.1257555211       15.2925706508        7.5871950278  MEMB      76              0.0000000000
      7755        76  POPC      H9X           -39.6919123837       15.6306203567        8.5525051996  MEMB      76              0.0000000000
      7756        76  POPC      H9Y           -40.7187789458       16.1594997599        7.2251474678  MEMB      76              0.0000000000
      7757        76  POPC      C310          -39.0077197446       14.9472416209        6.6874869937  MEMB      76              0.0000000000
      7758        76  POPC      H10X          -38.3945834391       15.7719327838        6.2652678166  MEMB      76              0.0000000000
      7759        76  POPC      H10Y          -39.4762775199       14.3619245922        5.8676228774  MEMB      76              0.0000000000
      7760        76  POPC      C311          -37.8333359494       14.1327947790        7.2868455098  MEMB      76              0.0000000000
      7761        76  POPC      H11X          -38.2927268853       13.2224967601        7.7280238802  MEMB      76              0.0000000000
      7762        76  POPC      H11Y          -37.4524832378       14.6336251344        8.2025103517  MEMB      76              0.0000000000
      7763        76  POPC      C312          -36.7582866827       13.8013793880        6.1949086919  MEMB      76              0.0000000000
      7764        76  POPC      H12X          -35.8867034367       13.4410657653        6.7821375830  MEMB      76              0.0000000000
      7765        76  POPC      H12Y          -36.3971107575       14.6891061271        5.6329349951  MEMB      76              0.0000000000
      7766        76  POPC      C313          -37.2880445825       12.7516837130        5.1849160026  MEMB      76              0.0000000000
      7767        76  POPC      H13X          -38.3939324660       12.6501046916        5.2167706345  MEMB      76              0.0000000000
      7768        76  POPC      H13Y          -36.8808085323       11.7612795930        5.4808539934  MEMB      76              0.0000000000
      7769        76  POPC      C314          -37.0905881384       13.0054582341        3.6377384813  MEMB      76              0.0000000000
      7770        76  POPC      H14X          -35.9946419647       13.0675233084        3.4663572021  MEMB      76              0.0000000000
      7771        76  POPC      H14Y          -37.5308552889       13.9905253513        3.3729204386  MEMB      76              0.0000000000
      7772        76  POPC      C315          -37.5088498625       11.7505946416        2.7411843033  MEMB      76              0.0000000000
      7773        76  POPC      H15X          -37.4172276239       12.1674063271        1.7154182929  MEMB      76              0.0000000000
      7774        76  POPC      H15Y          -38.6020564531       11.5757605753        2.8342092338  MEMB      76              0.0000000000
      7775        76  POPC      C316          -36.7950755691       10.3946121909        2.9177267125  MEMB      76              0.0000000000
      7776        76  POPC      H16X          -35.6995102077       10.4534020364        2.7427953796  MEMB      76              0.0000000000
      7777        76  POPC      H16Y          -37.2177595929        9.6247412324        2.2373156017  MEMB      76              0.0000000000
      7778        76  POPC      H16Z          -36.9559586282       10.1050758659        3.9782008615  MEMB      76              0.0000000000
      7779        77  POPC      N               3.3558121034       25.5436874223       19.2261383942  MEMB      77              0.0000000000
      7780        77  POPC      C12             3.7587324225       26.4071445400       18.1370365477  MEMB      77              0.0000000000
      7781        77  POPC      H12A            3.0312811079       27.1914649169       17.9885231526  MEMB      77              0.0000000000
      7782        77  POPC      H12B            3.8359392799       25.8137987013       17.2379371264  MEMB      77              0.0000000000
      7783        77  POPC      C13             3.1324791890       26.2151817323       20.6051471007  MEMB      77              0.0000000000
      7784        77  POPC      H13A            2.8371689925       25.4958857016       21.3546837700  MEMB      77              0.0000000000
      7785        77  POPC      H13B            4.0907270182       26.6228915754       20.8913879153  MEMB      77              0.0000000000
      7786        77  POPC      H13C            2.3787463326       26.9727365401       20.4489502416  MEMB      77              0.0000000000
      7787        77  POPC      C14             2.0099166396       24.8868667065       18.7412611187  MEMB      77              0.0000000000
      7788        77  POPC      H14A            1.2340648175       25.6380871574       18.7302385061  MEMB      77              0.0000000000
      7789        77  POPC      H14B            2.1150077393       24.4702294307       17.7504183417  MEMB      77              0.0000000000
      7790        77  POPC      H14C            1.6895677957       24.0970299480       19.4045368040  MEMB      77              0.0000000000
      7791        77  POPC      C15             4.3222215863       24.4294528259       19.3906586792  MEMB      77              0.0000000000
      7792        77  POPC      H15A            4.7011574186       24.2031887121       18.4049547963  MEMB      77              0.0000000000
      7793        77  POPC      H15B            3.9696154254       23.5856967992       19.9652410819  MEMB      77              0.0000000000
      7794        77  POPC      H15C            5.1289760974       24.7101347046       20.0515404979  MEMB      77              0.0000000000
      7795        77  POPC      C11             5.0322117796       27.1962694049       18.2727952162  MEMB      77              0.0000000000
      7796        77  POPC      H11A            5.3272676671       27.5511777518       17.2621997314  MEMB      77              0.0000000000
      7797        77  POPC      H11B            5.8070961109       26.4301675874       18.4895052764  MEMB      77              0.0000000000
      7798        77  POPC      P               5.0884678417       29.6858950303       18.9667106520  MEMB      77              0.0000000000
      7799        77  POPC      O13             6.3397619200       29.8431053774       18.1860215690  MEMB      77              0.0000000000
      7800        77  POPC      O14             4.9441472984       30.5234092346       20.1745161928  MEMB      77              0.0000000000
      7801        77  POPC      O12             5.0255791556       28.1187538378       19.3035556411  MEMB      77              0.0000000000
      7802        77  POPC      O11             3.8118904324       29.8871639903       17.9961588371  MEMB      77              0.0000000000
      7803        77  POPC      C1              2.6025091747       30.0496319205       18.6213701884  MEMB      77              0.0000000000
      7804        77  POPC      HA              2.5532140354       30.9432735624       19.2796222198  MEMB      77              0.0000000000
      7805        77  POPC      HB              2.2507782767       29.1688813608       19.2000625628  MEMB      77              0.0000000000
      7806        77  POPC      C2              1.5729932361       30.4044375976       17.5631318866  MEMB      77              0.0000000000
      7807        77  POPC      HS              0.5446171495       30.2776426343       17.9639899069  MEMB      77              0.0000000000
      7808        77  POPC      O21             1.7183332023       29.4100704600       16.4931193380  MEMB      77              0.0000000000
      7809        77  POPC      C21             1.2176709264       28.2397946169       16.5325324803  MEMB      77              0.0000000000
      7810        77  POPC      O22             0.5357126281       27.7421882665       17.4358545895  MEMB      77              0.0000000000
      7811        77  POPC      C22             1.6995743316       27.4925472817       15.2283577702  MEMB      77              0.0000000000
      7812        77  POPC      H2R             2.3716755437       26.6885267818       15.5973456915  MEMB      77              0.0000000000
      7813        77  POPC      H2S             2.2229986647       28.1409398657       14.4935551203  MEMB      77              0.0000000000
      7814        77  POPC      C3              1.8517019273       31.8234457583       17.0643540304  MEMB      77              0.0000000000
      7815        77  POPC      HX              1.6975139748       32.6100913813       17.8335974021  MEMB      77              0.0000000000
      7816        77  POPC      HY              1.1044025213       32.0169990179       16.2653535463  MEMB      77              0.0000000000
      7817        77  POPC      O31             3.1884150440       32.0006772665       16.6273221344  MEMB      77              0.0000000000
      7818        77  POPC      C31             3.6008509042       32.0643424815       15.3732245184  MEMB      77              0.0000000000
      7819        77  POPC      O32             2.8377548035       32.1086258556       14.4098741273  MEMB      77              0.0000000000
      7820        77  POPC      C32             5.1628458054       32.1009336890       15.3751238899  MEMB      77              0.0000000000
      7821        77  POPC      H2X             5.3530549025       31.6113344113       16.3541204352  MEMB      77              0.0000000000
      7822        77  POPC      H2Y             5.5663693205       33.1340291403       15.4399607846  MEMB      77              0.0000000000
      7823        77  POPC      C23             0.4967892914       26.7559124504       14.5675650709  MEMB      77              0.0000000000
      7824        77  POPC      H3R            -0.0847252790       26.1077210929       15.2574999259  MEMB      77              0.0000000000
      7825        77  POPC      H3S             0.9457370297       26.2351309762       13.6948948413  MEMB      77              0.0000000000
      7826        77  POPC      C24            -0.6281106322       27.7353579112       14.0656763324  MEMB      77              0.0000000000
      7827        77  POPC      H4R            -1.1395527212       28.3355240081       14.8483310315  MEMB      77              0.0000000000
      7828        77  POPC      H4S            -1.3671970599       27.1302421860       13.4983073904  MEMB      77              0.0000000000
      7829        77  POPC      C25             0.0079180951       28.8260237034       13.0890161985  MEMB      77              0.0000000000
      7830        77  POPC      H5R             0.7858540391       29.3248095118       13.7057409162  MEMB      77              0.0000000000
      7831        77  POPC      H5S            -0.7469392347       29.5996202580       12.8319944502  MEMB      77              0.0000000000
      7832        77  POPC      C26             0.7092825717       28.3622542894       11.8208863750  MEMB      77              0.0000000000
      7833        77  POPC      H6R             1.5255902083       27.7037391257       12.1873845168  MEMB      77              0.0000000000
      7834        77  POPC      H6S             1.1738198658       29.2914831979       11.4271102432  MEMB      77              0.0000000000
      7835        77  POPC      C27            -0.1381195608       27.5699638325       10.8089004379  MEMB      77              0.0000000000
      7836        77  POPC      H7R            -1.0166124358       28.1891483249       10.5275080459  MEMB      77              0.0000000000
      7837        77  POPC      H7S            -0.5292862190       26.6897231497       11.3625125285  MEMB      77              0.0000000000
      7838        77  POPC      C28             0.6492069091       26.9591893595        9.6637572661  MEMB      77              0.0000000000
      7839        77  POPC      H8R             1.0341775525       27.6372077134        8.8722961502  MEMB      77              0.0000000000
      7840        77  POPC      H8S            -0.0820475163       26.4048178898        9.0374504085  MEMB      77              0.0000000000
      7841        77  POPC      C29             1.7526818261       26.0725116552       10.0062210009  MEMB      77              0.0000000000
      7842        77  POPC      H91             1.7955961449       25.6840785306       11.0344609565  MEMB      77              0.0000000000
      7843        77  POPC      C210            2.6466213649       25.4954656359        9.2206032555  MEMB      77              0.0000000000
      7844        77  POPC      H101            3.4263224393       24.8047565103        9.5741388888  MEMB      77              0.0000000000
      7845        77  POPC      C211            2.7057737157       25.6734850326        7.6887464027  MEMB      77              0.0000000000
      7846        77  POPC      H11R            3.7806477130       25.7655035337        7.4232289478  MEMB      77              0.0000000000
      7847        77  POPC      H11S            2.3778380702       26.7024582159        7.4279910581  MEMB      77              0.0000000000
      7848        77  POPC      C212            2.1106643486       24.6419575113        6.7271529813  MEMB      77              0.0000000000
      7849        77  POPC      H12R            1.0187712145       24.5915281131        6.9260179149  MEMB      77              0.0000000000
      7850        77  POPC      H12S            2.4436218976       23.6164849186        6.9952332168  MEMB      77              0.0000000000
      7851        77  POPC      C213            2.5585671065       24.8824907136        5.3074853202  MEMB      77              0.0000000000
      7852        77  POPC      H13R            3.6306719148       25.1737973961        5.3002427921  MEMB      77              0.0000000000
      7853        77  POPC      H13S            1.8927346546       25.5986170926        4.7800850422  MEMB      77              0.0000000000
      7854        77  POPC      C214            2.5541938005       23.5440950966        4.3918784974  MEMB      77              0.0000000000
      7855        77  POPC      H14R            1.5390900940       23.1088802370        4.2715728865  MEMB      77              0.0000000000
      7856        77  POPC      H14S            3.2179931096       22.8262301886        4.9194780612  MEMB      77              0.0000000000
      7857        77  POPC      C215            3.3460577441       23.6758493721        3.0348941478  MEMB      77              0.0000000000
      7858        77  POPC      H15R            3.3460672598       22.7123662544        2.4817014977  MEMB      77              0.0000000000
      7859        77  POPC      H15S            4.4227776290       23.8747451987        3.2231367272  MEMB      77              0.0000000000
      7860        77  POPC      C216            2.9824711901       24.8965249857        2.1310340993  MEMB      77              0.0000000000
      7861        77  POPC      H16R            3.5441087232       24.8040254548        1.1769221500  MEMB      77              0.0000000000
      7862        77  POPC      H16S            3.2460674926       25.8820906743        2.5709188730  MEMB      77              0.0000000000
      7863        77  POPC      C217            1.4744630591       24.9317608308        1.7363576236  MEMB      77              0.0000000000
      7864        77  POPC      H17R            0.8597548456       25.0593726047        2.6529649809  MEMB      77              0.0000000000
      7865        77  POPC      H17S            1.2010046224       24.0236522517        1.1576690144  MEMB      77              0.0000000000
      7866        77  POPC      C218            1.1872090687       26.1141316204        0.8293847320  MEMB      77              0.0000000000
      7867        77  POPC      H18R            1.3190713073       27.0768970419        1.3679166051  MEMB      77              0.0000000000
      7868        77  POPC      H18S            0.0850559454       26.1260575065        0.6899682294  MEMB      77              0.0000000000
      7869        77  POPC      H18T            1.8040843438       26.2672730652       -0.0818415875  MEMB      77              0.0000000000
      7870        77  POPC      C33             5.7499109247       31.5175946684       14.0957353864  MEMB      77              0.0000000000
      7871        77  POPC      H3X             6.8138125851       31.7013375862       14.3577900706  MEMB      77              0.0000000000
      7872        77  POPC      H3Y             5.5624551930       32.1564641023       13.2063381012  MEMB      77              0.0000000000
      7873        77  POPC      C34             5.4847389126       30.0237000923       13.8355395638  MEMB      77              0.0000000000
      7874        77  POPC      H4X             4.5381489094       29.8476819694       13.2811878542  MEMB      77              0.0000000000
      7875        77  POPC      H4Y             5.3833850932       29.5447444841       14.8328611671  MEMB      77              0.0000000000
      7876        77  POPC      C35             6.5698325734       29.2945338694       13.0186126090  MEMB      77              0.0000000000
      7877        77  POPC      H5X             6.4025789038       28.1978135412       13.0782068390  MEMB      77              0.0000000000
      7878        77  POPC      H5Y             7.5739249906       29.4984045686       13.4482128364  MEMB      77              0.0000000000
      7879        77  POPC      C36             6.8361755716       29.8602133294       11.6166300581  MEMB      77              0.0000000000
      7880        77  POPC      H6X             7.6058434011       29.1442614686       11.2569837525  MEMB      77              0.0000000000
      7881        77  POPC      H6Y             7.2551932101       30.8847104603       11.7122898941  MEMB      77              0.0000000000
      7882        77  POPC      C37             5.7343311760       29.9099580736       10.5583957612  MEMB      77              0.0000000000
      7883        77  POPC      H7X             5.2781204930       30.9220316719       10.6019813515  MEMB      77              0.0000000000
      7884        77  POPC      H7Y             4.9725485189       29.1784315274       10.9031809864  MEMB      77              0.0000000000
      7885        77  POPC      C38             6.3934643307       29.5364876397        9.1668118288  MEMB      77              0.0000000000
      7886        77  POPC      H8X             6.7572751602       28.4877586255        9.1206576873  MEMB      77              0.0000000000
      7887        77  POPC      H8Y             7.3303102211       30.1327522951        9.2001151969  MEMB      77              0.0000000000
      7888        77  POPC      C39             5.6008027054       29.9368459550        7.9608370469  MEMB      77              0.0000000000
      7889        77  POPC      H9X             6.0230417809       30.9159166700        7.6486576591  MEMB      77              0.0000000000
      7890        77  POPC      H9Y             4.5668611415       30.0878113864        8.3383222696  MEMB      77              0.0000000000
      7891        77  POPC      C310            5.6441666697       29.0113409973        6.6919198550  MEMB      77              0.0000000000
      7892        77  POPC      H10X            5.3278520809       28.0097825080        7.0540612854  MEMB      77              0.0000000000
      7893        77  POPC      H10Y            6.7083607157       28.9887941595        6.3736372059  MEMB      77              0.0000000000
      7894        77  POPC      C311            4.6729176504       29.4408508015        5.6304398833  MEMB      77              0.0000000000
      7895        77  POPC      H11X            5.0855449553       30.3407672527        5.1262475561  MEMB      77              0.0000000000
      7896        77  POPC      H11Y            3.7698766099       29.7596816989        6.1936313786  MEMB      77              0.0000000000
      7897        77  POPC      C312            4.4060768250       28.3470110772        4.5198822126  MEMB      77              0.0000000000
      7898        77  POPC      H12X            3.6797921160       27.6741776395        5.0239919590  MEMB      77              0.0000000000
      7899        77  POPC      H12Y            5.3695079491       27.7938741078        4.5071908756  MEMB      77              0.0000000000
      7900        77  POPC      C313            4.0867259823       28.9985142462        3.1670164105  MEMB      77              0.0000000000
      7901        77  POPC      H13X            4.0154385201       28.1938630787        2.4042748006  MEMB      77              0.0000000000
      7902        77  POPC      H13Y            4.9325633682       29.6842056073        2.9463195677  MEMB      77              0.0000000000
      7903        77  POPC      C314            2.7820870508       29.8265869138        3.2090901162  MEMB      77              0.0000000000
      7904        77  POPC      H14X            2.7222474504       30.0855656122        2.1303529479  MEMB      77              0.0000000000
      7905        77  POPC      H14Y            2.8048000615       30.7647228815        3.8038216220  MEMB      77              0.0000000000
      7906        77  POPC      C315            1.4830320300       29.0750758445        3.6647086678  MEMB      77              0.0000000000
      7907        77  POPC      H15X            1.5952390299       29.0887254128        4.7699439877  MEMB      77              0.0000000000
      7908        77  POPC      H15Y            1.4553863208       28.0332197274        3.2798805589  MEMB      77              0.0000000000
      7909        77  POPC      C316            0.1296331186       29.7890770648        3.3030495026  MEMB      77              0.0000000000
      7910        77  POPC      H16X            0.0507842995       30.0863813944        2.2354760422  MEMB      77              0.0000000000
      7911        77  POPC      H16Y            0.0568338909       30.7284864732        3.8917188851  MEMB      77              0.0000000000
      7912        77  POPC      H16Z           -0.7561559344       29.1432615743        3.4836628995  MEMB      77              0.0000000000
      7913        78  POPC      N             -30.4325589478      -10.7306847878       20.2916426773  MEMB      78              0.0000000000
      7914        78  POPC      C12           -29.7530090721       -9.4987923483       20.7847521727  MEMB      78              0.0000000000
      7915        78  POPC      H12A          -28.7013963996       -9.7363793035       20.8484956517  MEMB      78              0.0000000000
      7916        78  POPC      H12B          -30.0733497898       -9.3132062409       21.7993159593  MEMB      78              0.0000000000
      7917        78  POPC      C13           -29.7255557561      -11.1587040351       19.0156455480  MEMB      78              0.0000000000
      7918        78  POPC      H13A          -29.9568236353      -10.3646645593       18.3210833976  MEMB      78              0.0000000000
      7919        78  POPC      H13B          -28.6671645707      -11.1396834434       19.2297626954  MEMB      78              0.0000000000
      7920        78  POPC      H13C          -30.0403959549      -12.1290944935       18.6612196770  MEMB      78              0.0000000000
      7921        78  POPC      C14           -30.2242116643      -11.8536955005       21.3441502299  MEMB      78              0.0000000000
      7922        78  POPC      H14A          -30.5877032985      -12.7901035938       20.9473965849  MEMB      78              0.0000000000
      7923        78  POPC      H14B          -29.2023161538      -11.9706446794       21.6734717903  MEMB      78              0.0000000000
      7924        78  POPC      H14C          -30.8526827454      -11.6317927902       22.1939638345  MEMB      78              0.0000000000
      7925        78  POPC      C15           -31.9087011857      -10.4949239366       19.8825092968  MEMB      78              0.0000000000
      7926        78  POPC      H15A          -32.5752603783      -10.4071297305       20.7277258246  MEMB      78              0.0000000000
      7927        78  POPC      H15B          -32.2378871131      -11.3941268356       19.3830388835  MEMB      78              0.0000000000
      7928        78  POPC      H15C          -32.0441741313       -9.6416993641       19.2343928069  MEMB      78              0.0000000000
      7929        78  POPC      C11           -29.8359290839       -8.2408475224       19.8983838649  MEMB      78              0.0000000000
      7930        78  POPC      H11A          -29.5802031137       -7.4649371819       20.6513037236  MEMB      78              0.0000000000
      7931        78  POPC      H11B          -30.8577797782       -8.0957404119       19.4871830227  MEMB      78              0.0000000000
      7932        78  POPC      P             -28.8540306793       -7.2602250798       17.5726855947  MEMB      78              0.0000000000
      7933        78  POPC      O13           -27.7164607652       -7.6980012867       16.7790835732  MEMB      78              0.0000000000
      7934        78  POPC      O14           -28.8730179171       -5.8362018440       17.9197304265  MEMB      78              0.0000000000
      7935        78  POPC      O12           -28.9428078986       -8.2817290461       18.7919993515  MEMB      78              0.0000000000
      7936        78  POPC      O11           -30.1003100160       -7.5407270872       16.7194172596  MEMB      78              0.0000000000
      7937        78  POPC      C1            -30.7892448289       -8.7427055460       16.5493584696  MEMB      78              0.0000000000
      7938        78  POPC      HA            -31.8195999068       -8.5664225409       16.9256742908  MEMB      78              0.0000000000
      7939        78  POPC      HB            -30.3585343032       -9.5475260201       17.1826620984  MEMB      78              0.0000000000
      7940        78  POPC      C2            -30.7204938665       -9.3157344966       15.1064188554  MEMB      78              0.0000000000
      7941        78  POPC      HS            -30.9833070774      -10.3940086522       15.0556705809  MEMB      78              0.0000000000
      7942        78  POPC      O21           -29.5488572759       -8.9631025891       14.3755513045  MEMB      78              0.0000000000
      7943        78  POPC      C21           -28.6958063159       -9.9547569177       14.2046917016  MEMB      78              0.0000000000
      7944        78  POPC      O22           -28.8093247608      -11.0830709503       14.6201990458  MEMB      78              0.0000000000
      7945        78  POPC      C22           -27.3632861361       -9.2887441760       13.9332966695  MEMB      78              0.0000000000
      7946        78  POPC      H2R           -26.6094058881      -10.0359435833       14.2614408324  MEMB      78              0.0000000000
      7947        78  POPC      H2S           -27.2185155167       -8.2518963142       14.3051957617  MEMB      78              0.0000000000
      7948        78  POPC      C3            -31.8988544302       -8.7493726372       14.2796086927  MEMB      78              0.0000000000
      7949        78  POPC      HX            -31.9781911100       -7.6415002600       14.3050158658  MEMB      78              0.0000000000
      7950        78  POPC      HY            -32.8380531091       -9.0892201166       14.7661584049  MEMB      78              0.0000000000
      7951        78  POPC      O31           -31.7542758810       -9.1820648217       12.8932032149  MEMB      78              0.0000000000
      7952        78  POPC      C31           -32.2767446419      -10.3748061557       12.5686769524  MEMB      78              0.0000000000
      7953        78  POPC      O32           -32.8501173510      -11.1542644156       13.2781391537  MEMB      78              0.0000000000
      7954        78  POPC      C32           -32.0433107048      -10.5986088960       11.0394179162  MEMB      78              0.0000000000
      7955        78  POPC      H2X           -32.4236831053       -9.7077708033       10.4953172057  MEMB      78              0.0000000000
      7956        78  POPC      H2Y           -32.7126970522      -11.4426837049       10.7677924934  MEMB      78              0.0000000000
      7957        78  POPC      C23           -27.0651679879       -9.1180045889       12.4286010975  MEMB      78              0.0000000000
      7958        78  POPC      H3R           -28.0476208082       -8.8086689657       12.0121649259  MEMB      78              0.0000000000
      7959        78  POPC      H3S           -26.8831482534      -10.1287895387       12.0049225831  MEMB      78              0.0000000000
      7960        78  POPC      C24           -25.9354881043       -8.1671710775       12.0871207574  MEMB      78              0.0000000000
      7961        78  POPC      H4R           -25.0673269978       -8.4941776914       12.6984173977  MEMB      78              0.0000000000
      7962        78  POPC      H4S           -26.2233355707       -7.1017121596       12.2146434379  MEMB      78              0.0000000000
      7963        78  POPC      C25           -25.4503703160       -8.2708250135       10.6279084420  MEMB      78              0.0000000000
      7964        78  POPC      H5R           -25.0484157054       -9.2986221372       10.4998962718  MEMB      78              0.0000000000
      7965        78  POPC      H5S           -24.5587840920       -7.6240993369       10.4825097585  MEMB      78              0.0000000000
      7966        78  POPC      C26           -26.6675927622       -8.0015816848        9.7135639591  MEMB      78              0.0000000000
      7967        78  POPC      H6R           -27.4300837643       -8.7992360575        9.8426999905  MEMB      78              0.0000000000
      7968        78  POPC      H6S           -26.3012899407       -8.1821520574        8.6803468315  MEMB      78              0.0000000000
      7969        78  POPC      C27           -27.1913744132       -6.5949130014        9.7118795332  MEMB      78              0.0000000000
      7970        78  POPC      H7R           -26.4491417623       -5.8915046471        9.2775653321  MEMB      78              0.0000000000
      7971        78  POPC      H7S           -27.3821633891       -6.1859845602       10.7271123591  MEMB      78              0.0000000000
      7972        78  POPC      C28           -28.6166485167       -6.4830576993        9.1661086243  MEMB      78              0.0000000000
      7973        78  POPC      H8R           -29.2734782321       -7.1184980079        9.7978612162  MEMB      78              0.0000000000
      7974        78  POPC      H8S           -28.6515771133       -6.9310493175        8.1500352400  MEMB      78              0.0000000000
      7975        78  POPC      C29           -29.2496424322       -5.0930098179        9.1862029714  MEMB      78              0.0000000000
      7976        78  POPC      H91           -28.6082159258       -4.5103205332        9.8637320688  MEMB      78              0.0000000000
      7977        78  POPC      C210          -30.2682685798       -4.6717737435        8.5508696108  MEMB      78              0.0000000000
      7978        78  POPC      H101          -30.7300300013       -3.7440101504        8.9196935974  MEMB      78              0.0000000000
      7979        78  POPC      C211          -31.0421338688       -5.5800419168        7.6098238581  MEMB      78              0.0000000000
      7980        78  POPC      H11R          -32.0914010987       -5.2198752812        7.5494997116  MEMB      78              0.0000000000
      7981        78  POPC      H11S          -31.1698502365       -6.6099690201        8.0063845635  MEMB      78              0.0000000000
      7982        78  POPC      C212          -30.4533065414       -5.5598127106        6.1619870895  MEMB      78              0.0000000000
      7983        78  POPC      H12R          -29.7555710809       -6.4203112757        6.0781510910  MEMB      78              0.0000000000
      7984        78  POPC      H12S          -30.0809985011       -4.5742919315        5.8092025696  MEMB      78              0.0000000000
      7985        78  POPC      C213          -31.6819049422       -5.8620373797        5.1760472196  MEMB      78              0.0000000000
      7986        78  POPC      H13R          -32.2377915089       -4.9196869858        4.9829471102  MEMB      78              0.0000000000
      7987        78  POPC      H13S          -32.3896370847       -6.4706105805        5.7786036136  MEMB      78              0.0000000000
      7988        78  POPC      C214          -31.2483585562       -6.6621157532        3.9428108552  MEMB      78              0.0000000000
      7989        78  POPC      H14R          -30.7742241338       -7.6259964017        4.2264501675  MEMB      78              0.0000000000
      7990        78  POPC      H14S          -30.5852459864       -5.8920631525        3.4937875888  MEMB      78              0.0000000000
      7991        78  POPC      C215          -32.4079827034       -6.9257713192        3.0566966103  MEMB      78              0.0000000000
      7992        78  POPC      H15R          -32.7232477808       -5.9473800699        2.6351766052  MEMB      78              0.0000000000
      7993        78  POPC      H15S          -33.2704976445       -7.2776902634        3.6621237064  MEMB      78              0.0000000000
      7994        78  POPC      C216          -32.0943364763       -7.8818593318        1.8608700092  MEMB      78              0.0000000000
      7995        78  POPC      H16R          -31.8820752780       -8.9248293095        2.1794277849  MEMB      78              0.0000000000
      7996        78  POPC      H16S          -31.2500532146       -7.5049263153        1.2448927467  MEMB      78              0.0000000000
      7997        78  POPC      C217          -33.2085352152       -8.0091790786        0.8609453080  MEMB      78              0.0000000000
      7998        78  POPC      H17R          -33.4417271376       -7.0874256773        0.2862168830  MEMB      78              0.0000000000
      7999        78  POPC      H17S          -34.1278249207       -8.3709439481        1.3692303756  MEMB      78              0.0000000000
      8000        78  POPC      C218          -32.8942854839       -9.1672087306       -0.1462061774  MEMB      78              0.0000000000
      8001        78  POPC      H18R          -32.1074059613       -8.7564617209       -0.8143585556  MEMB      78              0.0000000000
      8002        78  POPC      H18S          -33.7856043749       -9.3342908573       -0.7880426272  MEMB      78              0.0000000000
      8003        78  POPC      H18T          -32.7227772169      -10.1213268454        0.3965329269  MEMB      78              0.0000000000
      8004        78  POPC      C33           -30.6165458804      -10.9066063212       10.6676815748  MEMB      78              0.0000000000
      8005        78  POPC      H3X           -30.2850199956      -11.7814185036       11.2669439896  MEMB      78              0.0000000000
      8006        78  POPC      H3Y           -29.9583988644      -10.0125985755       10.7114277848  MEMB      78              0.0000000000
      8007        78  POPC      C34           -30.4859006878      -11.5743440124        9.2345506690  MEMB      78              0.0000000000
      8008        78  POPC      H4X           -31.0718248584      -12.5182785012        9.2333817625  MEMB      78              0.0000000000
      8009        78  POPC      H4Y           -29.3989229469      -11.7810933006        9.1342741669  MEMB      78              0.0000000000
      8010        78  POPC      C35           -30.9935507413      -10.7360118820        8.0491601464  MEMB      78              0.0000000000
      8011        78  POPC      H5X           -30.5060135731       -9.7401286690        8.1187667413  MEMB      78              0.0000000000
      8012        78  POPC      H5Y           -32.0488252402      -10.4538336234        8.2518727613  MEMB      78              0.0000000000
      8013        78  POPC      C36           -30.9315162951      -11.4233965932        6.6719512103  MEMB      78              0.0000000000
      8014        78  POPC      H6X           -31.4425131328      -10.7995766877        5.9077180137  MEMB      78              0.0000000000
      8015        78  POPC      H6Y           -31.4816589945      -12.3870240620        6.6163976147  MEMB      78              0.0000000000
      8016        78  POPC      C37           -29.5398796390      -11.8399032157        6.2118234890  MEMB      78              0.0000000000
      8017        78  POPC      H7X           -29.2919613093      -12.7296826185        6.8291972167  MEMB      78              0.0000000000
      8018        78  POPC      H7Y           -28.7728121313      -11.0953779726        6.5144961435  MEMB      78              0.0000000000
      8019        78  POPC      C38           -29.5011877797      -12.3991338006        4.7954517857  MEMB      78              0.0000000000
      8020        78  POPC      H8X           -30.4244171986      -13.0140804990        4.7337326962  MEMB      78              0.0000000000
      8021        78  POPC      H8Y           -28.5737923908      -12.9960358680        4.6614097871  MEMB      78              0.0000000000
      8022        78  POPC      C39           -29.5642420160      -11.3832307281        3.7220714732  MEMB      78              0.0000000000
      8023        78  POPC      H9X           -28.8106334494      -10.5704195548        3.7977879528  MEMB      78              0.0000000000
      8024        78  POPC      H9Y           -30.5275769564      -10.8403655121        3.8297931707  MEMB      78              0.0000000000
      8025        78  POPC      C310          -29.2823294616      -11.9599564779        2.3470417289  MEMB      78              0.0000000000
      8026        78  POPC      H10X          -29.9640963580      -12.8358504040        2.2988272279  MEMB      78              0.0000000000
      8027        78  POPC      H10Y          -28.2551040688      -12.3830664652        2.3366957056  MEMB      78              0.0000000000
      8028        78  POPC      C311          -29.5858723535      -10.9502669852        1.2366461310  MEMB      78              0.0000000000
      8029        78  POPC      H11X          -30.5487919832      -10.4338421624        1.4376740061  MEMB      78              0.0000000000
      8030        78  POPC      H11Y          -29.7931755492      -11.4320348016        0.2572347183  MEMB      78              0.0000000000
      8031        78  POPC      C312          -28.5347725277       -9.7550492540        1.1114808398  MEMB      78              0.0000000000
      8032        78  POPC      H12X          -27.5828613906      -10.1652214254        1.5114117330  MEMB      78              0.0000000000
      8033        78  POPC      H12Y          -28.8177385796       -8.8150607090        1.6317427860  MEMB      78              0.0000000000
      8034        78  POPC      C313          -28.2296926858       -9.3624055246       -0.3739328179  MEMB      78              0.0000000000
      8035        78  POPC      H13X          -27.5206255961       -8.5223387674       -0.2132055195  MEMB      78              0.0000000000
      8036        78  POPC      H13Y          -29.1322683280       -8.9958062718       -0.9080522483  MEMB      78              0.0000000000
      8037        78  POPC      C314          -27.4828826493      -10.3985844163       -1.2674243574  MEMB      78              0.0000000000
      8038        78  POPC      H14X          -27.6579465396      -10.0870541571       -2.3193840367  MEMB      78              0.0000000000
      8039        78  POPC      H14Y          -27.8061250811      -11.4315802884       -1.0169146150  MEMB      78              0.0000000000
      8040        78  POPC      C315          -26.0113502126      -10.4716556842       -1.0640827877  MEMB      78              0.0000000000
      8041        78  POPC      H15X          -25.7297020652      -10.5922414333        0.0038381325  MEMB      78              0.0000000000
      8042        78  POPC      H15Y          -25.5079404653       -9.5259394493       -1.3582260619  MEMB      78              0.0000000000
      8043        78  POPC      C316          -25.4227052629      -11.5450831914       -1.9879049188  MEMB      78              0.0000000000
      8044        78  POPC      H16X          -25.5865465649      -12.5434059880       -1.5287437254  MEMB      78              0.0000000000
      8045        78  POPC      H16Y          -24.3311862501      -11.4346671781       -2.1631638152  MEMB      78              0.0000000000
      8046        78  POPC      H16Z          -25.9805670544      -11.5878538126       -2.9477390133  MEMB      78              0.0000000000
      8047        79  POPE      N              33.0275072473       19.6472253090       17.2274716552  MEMB      79              0.0000000000
      8048        79  POPE      HN1            33.7294326584       20.2753106881       17.6683905719  MEMB      79              0.0000000000
      8049        79  POPE      HN2            32.6103200498       20.0739027416       16.3757081847  MEMB      79              0.0000000000
      8050        79  POPE      HN3            32.3087720786       19.3912731393       17.9342305725  MEMB      79              0.0000000000
      8051        79  POPE      C12            33.5598839156       18.3075292764       16.8977613428  MEMB      79              0.0000000000
      8052        79  POPE      H12A           34.4749055209       18.3852761979       16.2724519701  MEMB      79              0.0000000000
      8053        79  POPE      H12B           32.7821661296       17.7190618307       16.3656129754  MEMB      79              0.0000000000
      8054        79  POPE      C11            33.9302009592       17.5409614154       18.0915095922  MEMB      79              0.0000000000
      8055        79  POPE      H11A           34.3433155103       16.5542534014       17.7914018919  MEMB      79              0.0000000000
      8056        79  POPE      H11B           33.0133607299       17.2686019288       18.6567929132  MEMB      79              0.0000000000
      8057        79  POPE      P              35.5444599889       17.4101673533       20.0550640872  MEMB      79              0.0000000000
      8058        79  POPE      O13            34.7359756322       16.3443165413       20.6705392126  MEMB      79              0.0000000000
      8059        79  POPE      O14            36.2176841281       18.3362412268       20.9763988318  MEMB      79              0.0000000000
      8060        79  POPE      O11            36.6408355838       16.8960804537       19.0267943657  MEMB      79              0.0000000000
      8061        79  POPE      O12            34.6691973454       18.3293840253       19.0544609134  MEMB      79              0.0000000000
      8062        79  POPE      C1             37.9292159639       16.5730438597       19.4569899349  MEMB      79              0.0000000000
      8063        79  POPE      HA             37.9750086331       15.7709908652       20.2244109854  MEMB      79              0.0000000000
      8064        79  POPE      HB             38.4471893351       17.4639502110       19.8720928641  MEMB      79              0.0000000000
      8065        79  POPE      C2             38.7974919159       16.1641976174       18.1481323777  MEMB      79              0.0000000000
      8066        79  POPE      HS             39.8709950735       16.1404619583       18.4333484214  MEMB      79              0.0000000000
      8067        79  POPE      O21            38.5356269073       17.0082088614       17.0272478814  MEMB      79              0.0000000000
      8068        79  POPE      C21            39.1571120323       16.9006749031       15.8317484309  MEMB      79              0.0000000000
      8069        79  POPE      O22            39.9333370206       16.0448957212       15.5715773324  MEMB      79              0.0000000000
      8070        79  POPE      C22            38.7059666266       18.0698112559       14.9467650019  MEMB      79              0.0000000000
      8071        79  POPE      H2R            38.7908781295       19.0998147487       15.3544461542  MEMB      79              0.0000000000
      8072        79  POPE      H2S            37.6233064526       17.8540930049       14.8217314044  MEMB      79              0.0000000000
      8073        79  POPE      C3             38.3725390649       14.6907342633       17.8445339531  MEMB      79              0.0000000000
      8074        79  POPE      HX             38.5805937920       14.1061653045       18.7661158990  MEMB      79              0.0000000000
      8075        79  POPE      HY             39.0581064714       14.2588115496       17.0844283471  MEMB      79              0.0000000000
      8076        79  POPE      O31            37.0204223230       14.4790019561       17.5332985771  MEMB      79              0.0000000000
      8077        79  POPE      C31            36.7985529381       13.9252255803       16.3037692802  MEMB      79              0.0000000000
      8078        79  POPE      O32            37.6253012998       13.3675117378       15.6613447256  MEMB      79              0.0000000000
      8079        79  POPE      C32            35.3828372711       14.2474909392       15.8731937916  MEMB      79              0.0000000000
      8080        79  POPE      H2X            35.3944950060       15.3581786085       15.8495634706  MEMB      79              0.0000000000
      8081        79  POPE      H2Y            34.5914811940       13.8677641751       16.5542840052  MEMB      79              0.0000000000
      8082        79  POPE      C23            39.3009993788       17.9344963699       13.5468858355  MEMB      79              0.0000000000
      8083        79  POPE      H3R            39.1371414811       16.9097235736       13.1502597557  MEMB      79              0.0000000000
      8084        79  POPE      H3S            40.3585279547       18.2745798289       13.5641314319  MEMB      79              0.0000000000
      8085        79  POPE      C24            38.5526581669       18.7739017853       12.4187686354  MEMB      79              0.0000000000
      8086        79  POPE      H4R            38.7360479387       19.8227046888       12.7361041058  MEMB      79              0.0000000000
      8087        79  POPE      H4S            37.4482990283       18.6546988914       12.4411876062  MEMB      79              0.0000000000
      8088        79  POPE      C25            39.0329868885       18.5359620034       10.9854577377  MEMB      79              0.0000000000
      8089        79  POPE      H5R            40.0639725759       18.1276635111       11.0538802325  MEMB      79              0.0000000000
      8090        79  POPE      H5S            39.1417069867       19.5535980095       10.5531178397  MEMB      79              0.0000000000
      8091        79  POPE      C26            38.0985717504       17.6352549258       10.1533371399  MEMB      79              0.0000000000
      8092        79  POPE      H6R            37.7298916183       16.9003022667       10.9004918323  MEMB      79              0.0000000000
      8093        79  POPE      H6S            38.6062840879       17.1167038068        9.3121161169  MEMB      79              0.0000000000
      8094        79  POPE      C27            36.9721946642       18.3959233161        9.4980641910  MEMB      79              0.0000000000
      8095        79  POPE      H7R            36.5925274307       19.0297781339       10.3277634554  MEMB      79              0.0000000000
      8096        79  POPE      H7S            36.2499671238       17.6616541246        9.0814618363  MEMB      79              0.0000000000
      8097        79  POPE      C28            37.3601211378       19.2455228133        8.2877696575  MEMB      79              0.0000000000
      8098        79  POPE      H8R            37.7956722743       18.6847555271        7.4332782175  MEMB      79              0.0000000000
      8099        79  POPE      H8S            38.0981206781       20.0002516313        8.6342689575  MEMB      79              0.0000000000
      8100        79  POPE      C29            36.0853044640       19.9487255782        7.7378368852  MEMB      79              0.0000000000
      8101        79  POPE      H91            35.6086239044       20.4480035188        8.5942819501  MEMB      79              0.0000000000
      8102        79  POPE      C210           35.7025530900       20.1544143015        6.4679525866  MEMB      79              0.0000000000
      8103        79  POPE      H101           34.6870755570       20.4894210153        6.2099293049  MEMB      79              0.0000000000
      8104        79  POPE      C211           36.4661312342       19.7025745985        5.2110393820  MEMB      79              0.0000000000
      8105        79  POPE      H11R           35.8919019297       18.8584603027        4.7728015577  MEMB      79              0.0000000000
      8106        79  POPE      H11S           37.4677817232       19.3124642983        5.4918087130  MEMB      79              0.0000000000
      8107        79  POPE      C212           36.6326935826       20.9372920848        4.3289120800  MEMB      79              0.0000000000
      8108        79  POPE      H12R           37.0735792894       20.5561831632        3.3830284885  MEMB      79              0.0000000000
      8109        79  POPE      H12S           37.3617560524       21.6686171507        4.7387325623  MEMB      79              0.0000000000
      8110        79  POPE      C213           35.2816420186       21.5036797429        3.9135865592  MEMB      79              0.0000000000
      8111        79  POPE      H13R           35.4395426080       22.5027820385        3.4540395697  MEMB      79              0.0000000000
      8112        79  POPE      H13S           34.6468797621       21.8191086894        4.7690996405  MEMB      79              0.0000000000
      8113        79  POPE      C214           34.3751688810       20.6404312879        3.0866243595  MEMB      79              0.0000000000
      8114        79  POPE      H14R           33.4675354380       21.2340989765        2.8456240107  MEMB      79              0.0000000000
      8115        79  POPE      H14S           34.0216484676       19.8004783151        3.7220948123  MEMB      79              0.0000000000
      8116        79  POPE      C215           35.0948705312       20.4099918117        1.7418028528  MEMB      79              0.0000000000
      8117        79  POPE      H15R           36.0182149464       19.8105827756        1.8916853175  MEMB      79              0.0000000000
      8118        79  POPE      H15S           35.4526504698       21.4077578057        1.4089686258  MEMB      79              0.0000000000
      8119        79  POPE      C216           34.3044991366       19.7841141814        0.5565837266  MEMB      79              0.0000000000
      8120        79  POPE      H16R           33.3348452824       20.3174023962        0.6550520970  MEMB      79              0.0000000000
      8121        79  POPE      H16S           34.1197295634       18.6928039980        0.6526228388  MEMB      79              0.0000000000
      8122        79  POPE      C217           34.7900136589       20.2226993205       -0.8146106682  MEMB      79              0.0000000000
      8123        79  POPE      H17R           34.8010752043       21.3278819348       -0.9276151409  MEMB      79              0.0000000000
      8124        79  POPE      H17S           34.0744788902       19.7843569167       -1.5427491061  MEMB      79              0.0000000000
      8125        79  POPE      C218           36.2497548491       19.6766430358       -1.1250721000  MEMB      79              0.0000000000
      8126        79  POPE      H18R           36.1585739924       18.5817868463       -1.2902904486  MEMB      79              0.0000000000
      8127        79  POPE      H18S           36.9674366664       19.8892722569       -0.3040709006  MEMB      79              0.0000000000
      8128        79  POPE      H18T           36.6583958225       20.0992108799       -2.0678182095  MEMB      79              0.0000000000
      8129        79  POPE      C33            35.1511023046       13.6241265572       14.4973994461  MEMB      79              0.0000000000
      8130        79  POPE      H3X            34.9330847449       12.5352683024       14.5316991464  MEMB      79              0.0000000000
      8131        79  POPE      H3Y            36.0290664479       13.9112976679       13.8801211674  MEMB      79              0.0000000000
      8132        79  POPE      C34            34.0756244889       14.1827064762       13.6085496254  MEMB      79              0.0000000000
      8133        79  POPE      H4X            33.0889744974       14.0309616740       14.0962134250  MEMB      79              0.0000000000
      8134        79  POPE      H4Y            34.2264759101       13.5202620229       12.7294973351  MEMB      79              0.0000000000
      8135        79  POPE      C35            34.3211864583       15.6059102382       13.1840440200  MEMB      79              0.0000000000
      8136        79  POPE      H5X            35.1975673887       15.7552780791       12.5177354277  MEMB      79              0.0000000000
      8137        79  POPE      H5Y            34.6719759185       16.1886154932       14.0625211329  MEMB      79              0.0000000000
      8138        79  POPE      C36            33.2151964582       16.2271829535       12.3773116720  MEMB      79              0.0000000000
      8139        79  POPE      H6X            32.3514955921       16.3677653722       13.0618393908  MEMB      79              0.0000000000
      8140        79  POPE      H6Y            32.8100774491       15.6745362556       11.5027941920  MEMB      79              0.0000000000
      8141        79  POPE      C37            33.5148114489       17.6673794984       11.8375984367  MEMB      79              0.0000000000
      8142        79  POPE      H7X            34.4472905958       17.4802309122       11.2633346144  MEMB      79              0.0000000000
      8143        79  POPE      H7Y            33.6845066834       18.3793595971       12.6734268421  MEMB      79              0.0000000000
      8144        79  POPE      C38            32.3927355263       18.2658996311       10.8997020856  MEMB      79              0.0000000000
      8145        79  POPE      H8X            32.2536219269       19.3480184472       11.1094341141  MEMB      79              0.0000000000
      8146        79  POPE      H8Y            31.4253945748       17.7225721957       10.9577350535  MEMB      79              0.0000000000
      8147        79  POPE      C39            32.7482499708       18.0525890083        9.4642466251  MEMB      79              0.0000000000
      8148        79  POPE      H9X            33.7373197602       18.5256821515        9.2846795935  MEMB      79              0.0000000000
      8149        79  POPE      H9Y            31.9444966860       18.5476162080        8.8783721617  MEMB      79              0.0000000000
      8150        79  POPE      C310           32.7080721048       16.5262652458        9.0673462021  MEMB      79              0.0000000000
      8151        79  POPE      H10X           31.7987819212       16.0933026150        9.5364469900  MEMB      79              0.0000000000
      8152        79  POPE      H10Y           33.6839857325       16.2531127642        9.5226498704  MEMB      79              0.0000000000
      8153        79  POPE      C311           32.6842472965       16.1186973122        7.5217193854  MEMB      79              0.0000000000
      8154        79  POPE      H11X           32.1068352959       16.8853282316        6.9620828560  MEMB      79              0.0000000000
      8155        79  POPE      H11Y           32.1963146033       15.1239930979        7.4392156554  MEMB      79              0.0000000000
      8156        79  POPE      C312           34.0905672321       16.1140379289        7.0202576153  MEMB      79              0.0000000000
      8157        79  POPE      H12X           34.7100475615       15.3725357789        7.5686548992  MEMB      79              0.0000000000
      8158        79  POPE      H12Y           34.4513555814       17.1580286848        7.1395736556  MEMB      79              0.0000000000
      8159        79  POPE      C313           34.3128947957       15.6904032474        5.5744904752  MEMB      79              0.0000000000
      8160        79  POPE      H13X           33.9638124633       14.6443744370        5.4392637415  MEMB      79              0.0000000000
      8161        79  POPE      H13Y           35.3868547305       15.8028939027        5.3131915548  MEMB      79              0.0000000000
      8162        79  POPE      C314           33.3807072334       16.4286897783        4.6581548407  MEMB      79              0.0000000000
      8163        79  POPE      H14X           33.7517108487       17.4717370693        4.5647219600  MEMB      79              0.0000000000
      8164        79  POPE      H14Y           32.3676970773       16.5637679548        5.0939140355  MEMB      79              0.0000000000
      8165        79  POPE      C315           33.4818740471       15.8891383090        3.2418051460  MEMB      79              0.0000000000
      8166        79  POPE      H15X           32.8244188183       16.3874775221        2.4976735832  MEMB      79              0.0000000000
      8167        79  POPE      H15Y           33.1053749549       14.8470557329        3.3232504513  MEMB      79              0.0000000000
      8168        79  POPE      C316           34.7901831133       15.7620927317        2.4185980699  MEMB      79              0.0000000000
      8169        79  POPE      H16X           35.6112931453       15.1820167939        2.8914740865  MEMB      79              0.0000000000
      8170        79  POPE      H16Y           35.1760575680       16.7993398360        2.3209250262  MEMB      79              0.0000000000
      8171        79  POPE      H16Z           34.5348122575       15.5058524858        1.3681477399  MEMB      79              0.0000000000
      8172        80  POPE      N              23.1035742148      -16.2474853903       19.6028510479  MEMB      80              0.0000000000
      8173        80  POPE      HN1            22.8096775253      -15.2692457708       19.4072187131  MEMB      80              0.0000000000
      8174        80  POPE      HN2            24.0278433992      -16.3489606223       20.0687152304  MEMB      80              0.0000000000
      8175        80  POPE      HN3            23.1804905193      -16.5873704454       18.6229724905  MEMB      80              0.0000000000
      8176        80  POPE      C12            21.9230896317      -16.6250370339       20.4952714990  MEMB      80              0.0000000000
      8177        80  POPE      H12A           21.3188037897      -15.7028035030       20.6318180334  MEMB      80              0.0000000000
      8178        80  POPE      H12B           22.3974095628      -16.9535099378       21.4447172521  MEMB      80              0.0000000000
      8179        80  POPE      C11            21.1211669686      -17.8631253072       19.9188389682  MEMB      80              0.0000000000
      8180        80  POPE      H11A           20.3155477154      -18.2276902955       20.5914391650  MEMB      80              0.0000000000
      8181        80  POPE      H11B           21.7663759505      -18.7594405336       19.7978205226  MEMB      80              0.0000000000
      8182        80  POPE      P              19.4304123289      -16.5203228998       18.4666206967  MEMB      80              0.0000000000
      8183        80  POPE      O13            20.0506223863      -15.2799074352       17.9041799142  MEMB      80              0.0000000000
      8184        80  POPE      O14            18.6075684072      -16.3539874094       19.6983542420  MEMB      80              0.0000000000
      8185        80  POPE      O11            18.5499756063      -17.0545557765       17.3396814399  MEMB      80              0.0000000000
      8186        80  POPE      O12            20.5941640964      -17.6101354984       18.5742021919  MEMB      80              0.0000000000
      8187        80  POPE      C1             18.8153823959      -18.1770793763       16.5034386989  MEMB      80              0.0000000000
      8188        80  POPE      HA             17.8943859773      -18.4664968461       15.9535989493  MEMB      80              0.0000000000
      8189        80  POPE      HB             19.0186499210      -19.0671812045       17.1364648768  MEMB      80              0.0000000000
      8190        80  POPE      C2             19.9770745116      -17.8973397948       15.4300646210  MEMB      80              0.0000000000
      8191        80  POPE      HS             20.9523965637      -17.7868037212       15.9504970370  MEMB      80              0.0000000000
      8192        80  POPE      O21            19.4169389050      -16.7443690152       14.6683419241  MEMB      80              0.0000000000
      8193        80  POPE      C21            20.1785634061      -15.7271053538       14.6496603242  MEMB      80              0.0000000000
      8194        80  POPE      O22            21.1897484917      -15.4754435160       15.3118882009  MEMB      80              0.0000000000
      8195        80  POPE      C22            19.7731551991      -14.8514347367       13.4763685242  MEMB      80              0.0000000000
      8196        80  POPE      H2R            18.7227387857      -14.5086916068       13.5924433319  MEMB      80              0.0000000000
      8197        80  POPE      H2S            19.7721155664      -15.4273991666       12.5263239403  MEMB      80              0.0000000000
      8198        80  POPE      C3             20.2415254857      -19.0822897529       14.5323153334  MEMB      80              0.0000000000
      8199        80  POPE      HX             20.6808869608      -19.9208764267       15.1137399644  MEMB      80              0.0000000000
      8200        80  POPE      HY             20.9579661071      -18.9446613424       13.6944055341  MEMB      80              0.0000000000
      8201        80  POPE      O31            19.0306606249      -19.5180246338       13.9557531380  MEMB      80              0.0000000000
      8202        80  POPE      C31            18.6141654340      -18.9667698983       12.7520515744  MEMB      80              0.0000000000
      8203        80  POPE      O32            19.3294259526      -18.3428377607       12.0048638286  MEMB      80              0.0000000000
      8204        80  POPE      C32            17.2015274056      -19.4662396995       12.4759746940  MEMB      80              0.0000000000
      8205        80  POPE      H2X            17.1003523704      -20.4044036145       13.0624331139  MEMB      80              0.0000000000
      8206        80  POPE      H2Y            17.0035913820      -19.5924014982       11.3900532254  MEMB      80              0.0000000000
      8207        80  POPE      C23            20.6841363248      -13.6290542775       13.4015415290  MEMB      80              0.0000000000
      8208        80  POPE      H3R            21.7487441714      -13.9340443147       13.4904919135  MEMB      80              0.0000000000
      8209        80  POPE      H3S            20.4029522977      -13.0034127785       14.2755147635  MEMB      80              0.0000000000
      8210        80  POPE      C24            20.7183040987      -12.7689431743       12.0933144295  MEMB      80              0.0000000000
      8211        80  POPE      H4R            21.5092378928      -11.9899732887       12.0491438694  MEMB      80              0.0000000000
      8212        80  POPE      H4S            19.7309658240      -12.2606114797       12.1262221536  MEMB      80              0.0000000000
      8213        80  POPE      C25            20.9622301925      -13.6542806576       10.7896241920  MEMB      80              0.0000000000
      8214        80  POPE      H5R            20.8565463475      -13.0392307543        9.8704578453  MEMB      80              0.0000000000
      8215        80  POPE      H5S            20.0749421363      -14.3105622827       10.6618133108  MEMB      80              0.0000000000
      8216        80  POPE      C26            22.3618652769      -14.2741995545       10.6983150490  MEMB      80              0.0000000000
      8217        80  POPE      H6R            22.2789989338      -15.0650898237       11.4741671185  MEMB      80              0.0000000000
      8218        80  POPE      H6S            23.1344405676      -13.5351141905       11.0003103523  MEMB      80              0.0000000000
      8219        80  POPE      C27            22.8449333531      -14.8742160217        9.3956806737  MEMB      80              0.0000000000
      8220        80  POPE      H7R            22.2398019250      -15.7983786090        9.2771027901  MEMB      80              0.0000000000
      8221        80  POPE      H7S            23.9195885377      -15.1508233269        9.4497709487  MEMB      80              0.0000000000
      8222        80  POPE      C28            22.7114386466      -13.9697718965        8.1480719782  MEMB      80              0.0000000000
      8223        80  POPE      H8R            23.3011285495      -13.0367936379        8.2751084657  MEMB      80              0.0000000000
      8224        80  POPE      H8S            21.6462242777      -13.6750502821        8.0350312785  MEMB      80              0.0000000000
      8225        80  POPE      C29            23.1365461397      -14.6462140980        6.8693822980  MEMB      80              0.0000000000
      8226        80  POPE      H91            24.1529787630      -14.3647228410        6.5569282378  MEMB      80              0.0000000000
      8227        80  POPE      C210           22.5217690625      -15.5703873406        6.1241353952  MEMB      80              0.0000000000
      8228        80  POPE      H101           23.0757776869      -15.9339573116        5.2461315748  MEMB      80              0.0000000000
      8229        80  POPE      C211           21.1820774350      -16.2439822325        6.3625676185  MEMB      80              0.0000000000
      8230        80  POPE      H11R           20.3398680170      -15.5313868842        6.4937635863  MEMB      80              0.0000000000
      8231        80  POPE      H11S           21.3921864413      -16.8585163590        7.2639680221  MEMB      80              0.0000000000
      8232        80  POPE      C212           20.8480298261      -17.2036635178        5.1823919895  MEMB      80              0.0000000000
      8233        80  POPE      H12R           20.1747613725      -18.0063181018        5.5522248116  MEMB      80              0.0000000000
      8234        80  POPE      H12S           21.8126001811      -17.7177672088        4.9833368050  MEMB      80              0.0000000000
      8235        80  POPE      C213           20.1827045972      -16.4792689412        3.9832274366  MEMB      80              0.0000000000
      8236        80  POPE      H13R           20.8031838991      -15.6277577370        3.6307290381  MEMB      80              0.0000000000
      8237        80  POPE      H13S           19.1700548294      -16.1077548499        4.2493829080  MEMB      80              0.0000000000
      8238        80  POPE      C214           19.8720190808      -17.4107959829        2.7955129074  MEMB      80              0.0000000000
      8239        80  POPE      H14R           19.4557525133      -18.3445921507        3.2303326909  MEMB      80              0.0000000000
      8240        80  POPE      H14S           20.7548319548      -17.8321468846        2.2688006919  MEMB      80              0.0000000000
      8241        80  POPE      C215           19.0452794847      -16.6710740510        1.7105546934  MEMB      80              0.0000000000
      8242        80  POPE      H15R           19.2728127587      -17.2091329389        0.7655465953  MEMB      80              0.0000000000
      8243        80  POPE      H15S           19.4554059841      -15.6447493493        1.5975292698  MEMB      80              0.0000000000
      8244        80  POPE      C216           17.6038566590      -16.5610558548        2.0993726189  MEMB      80              0.0000000000
      8245        80  POPE      H16R           17.4496708277      -15.8739461244        2.9586914408  MEMB      80              0.0000000000
      8246        80  POPE      H16S           17.2366526073      -17.5376259665        2.4812007728  MEMB      80              0.0000000000
      8247        80  POPE      C217           16.7346895793      -16.0333170646        0.8341711265  MEMB      80              0.0000000000
      8248        80  POPE      H17R           15.7076936699      -16.1057498626        1.2517273632  MEMB      80              0.0000000000
      8249        80  POPE      H17S           16.8251419854      -16.8518150716        0.0883814211  MEMB      80              0.0000000000
      8250        80  POPE      C218           16.9286066600      -14.6076524618        0.3815234332  MEMB      80              0.0000000000
      8251        80  POPE      H18R           16.1871497936      -14.3218855522       -0.3949429321  MEMB      80              0.0000000000
      8252        80  POPE      H18S           17.9321031246      -14.4303003403       -0.0610400251  MEMB      80              0.0000000000
      8253        80  POPE      H18T           16.8767497038      -13.9614851401        1.2837974916  MEMB      80              0.0000000000
      8254        80  POPE      C33            16.1526173211      -18.4756723941       12.9945018670  MEMB      80              0.0000000000
      8255        80  POPE      H3X            16.3790947092      -17.9892432718       13.9673409000  MEMB      80              0.0000000000
      8256        80  POPE      H3Y            15.2426883146      -19.0906334074       13.1623499540  MEMB      80              0.0000000000
      8257        80  POPE      C34            15.6217355183      -17.3849544904       11.9493091601  MEMB      80              0.0000000000
      8258        80  POPE      H4X            15.0339685587      -16.6276056025       12.5108016032  MEMB      80              0.0000000000
      8259        80  POPE      H4Y            14.8914626989      -17.9865548138       11.3669863541  MEMB      80              0.0000000000
      8260        80  POPE      C35            16.7116538333      -16.6698302107       11.1366283101  MEMB      80              0.0000000000
      8261        80  POPE      H5X            17.2150963118      -17.4211301314       10.4913257354  MEMB      80              0.0000000000
      8262        80  POPE      H5Y            17.3855245051      -16.1477844843       11.8491503969  MEMB      80              0.0000000000
      8263        80  POPE      C36            16.1938501100      -15.4654777859       10.2329547358  MEMB      80              0.0000000000
      8264        80  POPE      H6X            17.0065586180      -14.7122043414       10.1529229688  MEMB      80              0.0000000000
      8265        80  POPE      H6Y            15.3777383533      -15.0298149306       10.8481623810  MEMB      80              0.0000000000
      8266        80  POPE      C37            15.7082150758      -16.1035950817        8.9601341924  MEMB      80              0.0000000000
      8267        80  POPE      H7X            14.7346775678      -16.6239312557        9.0858146422  MEMB      80              0.0000000000
      8268        80  POPE      H7Y            16.4648012704      -16.8023830819        8.5434886355  MEMB      80              0.0000000000
      8269        80  POPE      C38            15.5713288657      -15.0074361273        7.8562556894  MEMB      80              0.0000000000
      8270        80  POPE      H8X            14.8197277216      -14.2374441716        8.1328949862  MEMB      80              0.0000000000
      8271        80  POPE      H8Y            15.2987116481      -15.5012118661        6.8990800600  MEMB      80              0.0000000000
      8272        80  POPE      C39            16.9072196577      -14.4080576177        7.4681660149  MEMB      80              0.0000000000
      8273        80  POPE      H9X            17.6882922486      -15.1862436137        7.6048166044  MEMB      80              0.0000000000
      8274        80  POPE      H9Y            17.1903840289      -13.5395155141        8.1004424292  MEMB      80              0.0000000000
      8275        80  POPE      C310           17.0146797494      -14.0111422929        5.9902039209  MEMB      80              0.0000000000
      8276        80  POPE      H10X           16.1569173545      -13.3468674804        5.7508215129  MEMB      80              0.0000000000
      8277        80  POPE      H10Y           16.8519953707      -14.8788327114        5.3156905255  MEMB      80              0.0000000000
      8278        80  POPE      C311           18.2882613110      -13.1850951118        5.5564998595  MEMB      80              0.0000000000
      8279        80  POPE      H11X           19.0815416857      -13.8415077317        5.9738134116  MEMB      80              0.0000000000
      8280        80  POPE      H11Y           18.3446767711      -12.2797407038        6.1979604684  MEMB      80              0.0000000000
      8281        80  POPE      C312           18.3530735077      -12.8841387776        4.0695928467  MEMB      80              0.0000000000
      8282        80  POPE      H12X           17.3674270902      -12.5086033986        3.7206000030  MEMB      80              0.0000000000
      8283        80  POPE      H12Y           18.5938632636      -13.7818095972        3.4608823858  MEMB      80              0.0000000000
      8284        80  POPE      C313           19.3604975791      -11.7896612465        3.6478049916  MEMB      80              0.0000000000
      8285        80  POPE      H13X           20.3756676588      -12.0174514245        4.0375000410  MEMB      80              0.0000000000
      8286        80  POPE      H13Y           18.9075302681      -10.8237355109        3.9578520967  MEMB      80              0.0000000000
      8287        80  POPE      C314           19.5083406880      -11.6639375998        2.1118232892  MEMB      80              0.0000000000
      8288        80  POPE      H14X           19.8779211253      -10.6198117239        2.0250333165  MEMB      80              0.0000000000
      8289        80  POPE      H14Y           18.4424459128      -11.6713429080        1.7985587434  MEMB      80              0.0000000000
      8290        80  POPE      C315           20.4150125314      -12.6293892322        1.4345849709  MEMB      80              0.0000000000
      8291        80  POPE      H15X           20.0002925204      -13.6019383831        1.7758698251  MEMB      80              0.0000000000
      8292        80  POPE      H15Y           21.4176235836      -12.5641709555        1.9087566588  MEMB      80              0.0000000000
      8293        80  POPE      C316           20.4541955127      -12.8095787986       -0.0945390490  MEMB      80              0.0000000000
      8294        80  POPE      H16X           19.8579062676      -12.0159022718       -0.5933742943  MEMB      80              0.0000000000
      8295        80  POPE      H16Y           20.0333739227      -13.7724101406       -0.4553515204  MEMB      80              0.0000000000
      8296        80  POPE      H16Z           21.5053006834      -12.7743606001       -0.4526708214  MEMB      80              0.0000000000
      8297        81  POPC      N             -30.8503383751       39.2320667773       19.8695368610  MEMB      81              0.0000000000
      8298        81  POPC      C12           -32.2778213759       39.5830946673       19.3266922229  MEMB      81              0.0000000000
      8299        81  POPC      H12A          -32.9737315987       39.3188001227       20.1091609806  MEMB      81              0.0000000000
      8300        81  POPC      H12B          -32.5320252991       39.0031126807       18.4518200151  MEMB      81              0.0000000000
      8301        81  POPC      C13           -30.5817200153       39.8726465680       21.2454329050  MEMB      81              0.0000000000
      8302        81  POPC      H13A          -31.3965482286       39.6704154401       21.9248133668  MEMB      81              0.0000000000
      8303        81  POPC      H13B          -29.6489199025       39.5395253475       21.6759143326  MEMB      81              0.0000000000
      8304        81  POPC      H13C          -30.5372309812       40.9462167137       21.1364931709  MEMB      81              0.0000000000
      8305        81  POPC      C14           -30.9117658208       37.6952012742       20.1424535512  MEMB      81              0.0000000000
      8306        81  POPC      H14A          -31.8296491494       37.4741868124       20.6668984945  MEMB      81              0.0000000000
      8307        81  POPC      H14B          -30.8960765020       37.2545748839       19.1565518796  MEMB      81              0.0000000000
      8308        81  POPC      H14C          -30.1713531829       37.3700270408       20.8583102456  MEMB      81              0.0000000000
      8309        81  POPC      C15           -29.6960989849       39.5070436461       18.9062222193  MEMB      81              0.0000000000
      8310        81  POPC      H15A          -29.9108844193       40.4750998848       18.4782800897  MEMB      81              0.0000000000
      8311        81  POPC      H15B          -29.8373095032       38.7413971758       18.1577270585  MEMB      81              0.0000000000
      8312        81  POPC      H15C          -28.7164550327       39.3797533836       19.3426790865  MEMB      81              0.0000000000
      8313        81  POPC      C11           -32.5163793121       41.0851246746       18.9401771508  MEMB      81              0.0000000000
      8314        81  POPC      H11A          -32.8174557299       41.5196858236       19.9173315275  MEMB      81              0.0000000000
      8315        81  POPC      H11B          -33.4788188962       41.0134597138       18.3898179290  MEMB      81              0.0000000000
      8316        81  POPC      P             -31.7759307949       43.2968484049       18.1865277355  MEMB      81              0.0000000000
      8317        81  POPC      O13           -31.3054962439       43.9860786336       19.3854426292  MEMB      81              0.0000000000
      8318        81  POPC      O14           -33.2149969345       43.4586105617       17.7371932357  MEMB      81              0.0000000000
      8319        81  POPC      O12           -31.4310477597       41.7715550577       18.3123479849  MEMB      81              0.0000000000
      8320        81  POPC      O11           -30.8411158801       43.7915512388       16.9479734994  MEMB      81              0.0000000000
      8321        81  POPC      C1            -29.9445011625       42.9820804265       16.2604961115  MEMB      81              0.0000000000
      8322        81  POPC      HA            -29.4881495420       42.3662159368       17.0647195790  MEMB      81              0.0000000000
      8323        81  POPC      HB            -29.1147581228       43.5322705917       15.7674058609  MEMB      81              0.0000000000
      8324        81  POPC      C2            -30.5327336627       42.0554099727       15.2040343253  MEMB      81              0.0000000000
      8325        81  POPC      HS            -30.0246460276       42.3038497842       14.2477680040  MEMB      81              0.0000000000
      8326        81  POPC      O21           -31.9523847475       41.9917485930       15.0320104291  MEMB      81              0.0000000000
      8327        81  POPC      C21           -32.3654962192       43.0900028933       14.3752578708  MEMB      81              0.0000000000
      8328        81  POPC      O22           -31.7090075712       43.9734053639       13.7915302615  MEMB      81              0.0000000000
      8329        81  POPC      C22           -33.8686761733       43.0700452526       14.5285988041  MEMB      81              0.0000000000
      8330        81  POPC      H2R           -34.3805459644       43.8204038118       15.1683430664  MEMB      81              0.0000000000
      8331        81  POPC      H2S           -34.2324127998       42.1641373896       15.0590210583  MEMB      81              0.0000000000
      8332        81  POPC      C3            -30.1310215043       40.5424852967       15.4964773376  MEMB      81              0.0000000000
      8333        81  POPC      HX            -30.4935430171       40.2168004279       16.4948903369  MEMB      81              0.0000000000
      8334        81  POPC      HY            -29.0277342541       40.4262862913       15.5562760203  MEMB      81              0.0000000000
      8335        81  POPC      O31           -30.6274640017       39.6437223822       14.4576923927  MEMB      81              0.0000000000
      8336        81  POPC      C31           -30.1369879548       39.6701520158       13.2248374876  MEMB      81              0.0000000000
      8337        81  POPC      O32           -29.3947893167       40.4359540922       12.7289838709  MEMB      81              0.0000000000
      8338        81  POPC      C32           -30.9518394370       38.6023327268       12.3673495375  MEMB      81              0.0000000000
      8339        81  POPC      H2X           -32.0101486908       38.5171318512       12.6945240339  MEMB      81              0.0000000000
      8340        81  POPC      H2Y           -30.3374776994       37.6805746462       12.4524534779  MEMB      81              0.0000000000
      8341        81  POPC      C23           -34.5641723565       43.1385640256       13.1437492227  MEMB      81              0.0000000000
      8342        81  POPC      H3R           -34.0418356796       43.8210985163       12.4397380776  MEMB      81              0.0000000000
      8343        81  POPC      H3S           -35.5553844175       43.5950512083       13.3521704801  MEMB      81              0.0000000000
      8344        81  POPC      C24           -34.8638534508       41.7924857621       12.4425161027  MEMB      81              0.0000000000
      8345        81  POPC      H4R           -35.5536058261       41.1514414012       13.0321130922  MEMB      81              0.0000000000
      8346        81  POPC      H4S           -33.8812032566       41.2746813795       12.4669763790  MEMB      81              0.0000000000
      8347        81  POPC      C25           -35.4041363121       42.0733963889       11.0332619610  MEMB      81              0.0000000000
      8348        81  POPC      H5R           -35.8178064703       43.1044976381       11.0279554611  MEMB      81              0.0000000000
      8349        81  POPC      H5S           -36.1558954286       41.2954929707       10.7801900027  MEMB      81              0.0000000000
      8350        81  POPC      C26           -34.3360737620       41.8658877332        9.8864349216  MEMB      81              0.0000000000
      8351        81  POPC      H6R           -34.0600021671       40.7962617613       10.0047825115  MEMB      81              0.0000000000
      8352        81  POPC      H6S           -33.4630699377       42.5100363153       10.1257213646  MEMB      81              0.0000000000
      8353        81  POPC      C27           -34.7697076466       42.0544720748        8.4946140111  MEMB      81              0.0000000000
      8354        81  POPC      H7R           -34.9148913147       43.1450894591        8.3403521161  MEMB      81              0.0000000000
      8355        81  POPC      H7S           -35.8079042908       41.6937175415        8.3323647587  MEMB      81              0.0000000000
      8356        81  POPC      C28           -34.0505639693       41.4132545189        7.3626001810  MEMB      81              0.0000000000
      8357        81  POPC      H8R           -32.9788014798       41.6968786124        7.4347363158  MEMB      81              0.0000000000
      8358        81  POPC      H8S           -34.5163527954       41.7066646789        6.3975762740  MEMB      81              0.0000000000
      8359        81  POPC      C29           -34.0868934602       39.8728062751        7.3352363069  MEMB      81              0.0000000000
      8360        81  POPC      H91           -33.9169380096       39.3746809918        8.3011483159  MEMB      81              0.0000000000
      8361        81  POPC      C210          -34.4933944399       38.9977138268        6.3861554060  MEMB      81              0.0000000000
      8362        81  POPC      H101          -34.4552594226       37.9118610605        6.5578206061  MEMB      81              0.0000000000
      8363        81  POPC      C211          -35.0404928156       39.3387850672        5.0980003353  MEMB      81              0.0000000000
      8364        81  POPC      H11R          -35.9572900975       39.9652430596        5.1348030559  MEMB      81              0.0000000000
      8365        81  POPC      H11S          -35.6200446228       38.4562791005        4.7521337006  MEMB      81              0.0000000000
      8366        81  POPC      C212          -34.0179418067       39.9059862275        4.0219775145  MEMB      81              0.0000000000
      8367        81  POPC      H12R          -33.5237836685       40.8462867679        4.3474982589  MEMB      81              0.0000000000
      8368        81  POPC      H12S          -34.6994086487       40.2206012140        3.2028667306  MEMB      81              0.0000000000
      8369        81  POPC      C213          -33.1156833629       38.7963213789        3.5852148467  MEMB      81              0.0000000000
      8370        81  POPC      H13R          -33.7735647044       38.0023518210        3.1715422064  MEMB      81              0.0000000000
      8371        81  POPC      H13S          -32.5347764011       38.3880370799        4.4397161773  MEMB      81              0.0000000000
      8372        81  POPC      C214          -32.1667908215       39.1889208103        2.4392346359  MEMB      81              0.0000000000
      8373        81  POPC      H14R          -31.3911627909       38.4046691567        2.3062999160  MEMB      81              0.0000000000
      8374        81  POPC      H14S          -31.6410745971       40.1453166218        2.6472021660  MEMB      81              0.0000000000
      8375        81  POPC      C215          -32.8404401925       39.3140377092        1.0543961201  MEMB      81              0.0000000000
      8376        81  POPC      H15R          -32.0514248969       39.5546908730        0.3101773621  MEMB      81              0.0000000000
      8377        81  POPC      H15S          -33.6638569671       40.0581875891        1.1048603973  MEMB      81              0.0000000000
      8378        81  POPC      C216          -33.3997591926       37.9405395806        0.6460623674  MEMB      81              0.0000000000
      8379        81  POPC      H16R          -34.3992308787       37.8500140257        1.1226980759  MEMB      81              0.0000000000
      8380        81  POPC      H16S          -32.7700625130       37.1484759900        1.1047980077  MEMB      81              0.0000000000
      8381        81  POPC      C217          -33.7778885741       37.6582793291       -0.7774914942  MEMB      81              0.0000000000
      8382        81  POPC      H17R          -34.0763579579       36.6128112607       -1.0060388747  MEMB      81              0.0000000000
      8383        81  POPC      H17S          -32.8641820571       37.7347133528       -1.4048825553  MEMB      81              0.0000000000
      8384        81  POPC      C218          -34.7745894931       38.7107097944       -1.3317941561  MEMB      81              0.0000000000
      8385        81  POPC      H18R          -35.1471154962       38.3704846711       -2.3216391865  MEMB      81              0.0000000000
      8386        81  POPC      H18S          -34.3680388902       39.7327149953       -1.4884558193  MEMB      81              0.0000000000
      8387        81  POPC      H18T          -35.6207783728       38.7446479249       -0.6126744437  MEMB      81              0.0000000000
      8388        81  POPC      C33           -30.8313052781       39.0728859470       10.8414356991  MEMB      81              0.0000000000
      8389        81  POPC      H3X           -30.9627245035       40.1553173834       10.6283809476  MEMB      81              0.0000000000
      8390        81  POPC      H3Y           -31.7461667562       38.5847107660       10.4426448388  MEMB      81              0.0000000000
      8391        81  POPC      C34           -29.6531255382       38.5203570174       10.0780031274  MEMB      81              0.0000000000
      8392        81  POPC      H4X           -29.2541076965       37.6386295983       10.6235868510  MEMB      81              0.0000000000
      8393        81  POPC      H4Y           -28.7910570101       39.2164078428       10.1596867589  MEMB      81              0.0000000000
      8394        81  POPC      C35           -29.9023501769       38.1396623615        8.6534205073  MEMB      81              0.0000000000
      8395        81  POPC      H5X           -30.7099452215       37.3776871877        8.6146265206  MEMB      81              0.0000000000
      8396        81  POPC      H5Y           -29.1099023762       37.6876520514        8.0193592770  MEMB      81              0.0000000000
      8397        81  POPC      C36           -30.3397732188       39.4094227322        7.8915749696  MEMB      81              0.0000000000
      8398        81  POPC      H6X           -29.6636203010       40.2205164034        8.2369230166  MEMB      81              0.0000000000
      8399        81  POPC      H6Y           -31.4115969062       39.5995413254        8.1137681673  MEMB      81              0.0000000000
      8400        81  POPC      C37           -30.2188336928       39.1947384735        6.3534670672  MEMB      81              0.0000000000
      8401        81  POPC      H7X           -31.0134896074       39.8304323661        5.9076681882  MEMB      81              0.0000000000
      8402        81  POPC      H7Y           -30.6271762920       38.1918998329        6.1046861909  MEMB      81              0.0000000000
      8403        81  POPC      C38           -28.9008534262       39.3627464906        5.6319142931  MEMB      81              0.0000000000
      8404        81  POPC      H8X           -29.0477851846       39.0504579554        4.5758802692  MEMB      81              0.0000000000
      8405        81  POPC      H8Y           -28.1359251057       38.6992106624        6.0889984526  MEMB      81              0.0000000000
      8406        81  POPC      C39           -28.2642515976       40.7716370020        5.5679659595  MEMB      81              0.0000000000
      8407        81  POPC      H9X           -27.3414899332       40.6276554612        4.9662185364  MEMB      81              0.0000000000
      8408        81  POPC      H9Y           -28.1144173650       41.0752185961        6.6261291171  MEMB      81              0.0000000000
      8409        81  POPC      C310          -29.0334072969       41.8896916837        4.8778056688  MEMB      81              0.0000000000
      8410        81  POPC      H10X          -28.3626531416       42.7752450454        4.8921272332  MEMB      81              0.0000000000
      8411        81  POPC      H10Y          -30.0077600722       42.1321136904        5.3533992080  MEMB      81              0.0000000000
      8412        81  POPC      C311          -29.2370865266       41.6891339814        3.3606408078  MEMB      81              0.0000000000
      8413        81  POPC      H11X          -29.5801225323       40.6528779193        3.1537095568  MEMB      81              0.0000000000
      8414        81  POPC      H11Y          -28.3340877171       41.8599819204        2.7363606176  MEMB      81              0.0000000000
      8415        81  POPC      C312          -30.4314711371       42.5083495816        2.7614416001  MEMB      81              0.0000000000
      8416        81  POPC      H12X          -30.4715117136       43.5375708536        3.1778795147  MEMB      81              0.0000000000
      8417        81  POPC      H12Y          -31.3778881483       42.0902030848        3.1661246718  MEMB      81              0.0000000000
      8418        81  POPC      C313          -30.4466043526       42.6467434662        1.2758760179  MEMB      81              0.0000000000
      8419        81  POPC      H13X          -30.5641301037       41.6061445424        0.9048481026  MEMB      81              0.0000000000
      8420        81  POPC      H13Y          -29.4543082199       43.0473718862        0.9772697442  MEMB      81              0.0000000000
      8421        81  POPC      C314          -31.6802226614       43.3893086981        0.8100946633  MEMB      81              0.0000000000
      8422        81  POPC      H14X          -32.5723487051       42.9086303188        1.2654843313  MEMB      81              0.0000000000
      8423        81  POPC      H14Y          -31.7190238032       43.2203030173       -0.2872914142  MEMB      81              0.0000000000
      8424        81  POPC      C315          -31.5876509979       44.9269295657        1.1272506398  MEMB      81              0.0000000000
      8425        81  POPC      H15X          -30.8588165792       45.2109514064        0.3382938668  MEMB      81              0.0000000000
      8426        81  POPC      H15Y          -31.1220313041       45.2711663289        2.0754174454  MEMB      81              0.0000000000
      8427        81  POPC      C316          -32.8892233450       45.6920680455        1.0390544348  MEMB      81              0.0000000000
      8428        81  POPC      H16X          -33.2627860742       45.6708407496       -0.0070429752  MEMB      81              0.0000000000
      8429        81  POPC      H16Y          -32.7648424253       46.7319498476        1.4098584824  MEMB      81              0.0000000000
      8430        81  POPC      H16Z          -33.5382355290       45.1521612713        1.7612772431  MEMB      81              0.0000000000
      8431        82  POPE      N              31.8930091270       -0.8542445485       19.0430965861  MEMB      82              0.0000000000
      8432        82  POPE      HN1            32.2566672475       -1.1330136730       18.1094797047  MEMB      82              0.0000000000
      8433        82  POPE      HN2            32.5390064145       -1.3123111554       19.7172347316  MEMB      82              0.0000000000
      8434        82  POPE      HN3            31.0003506226       -1.3274503967       19.2897483433  MEMB      82              0.0000000000
      8435        82  POPE      C12            31.7685940047        0.6661651643       19.1529968148  MEMB      82              0.0000000000
      8436        82  POPE      H12A           31.4962675439        0.8666192287       20.2112866377  MEMB      82              0.0000000000
      8437        82  POPE      H12B           30.9094754073        0.9294364887       18.4996024697  MEMB      82              0.0000000000
      8438        82  POPE      C11            33.0506309554        1.5512630639       18.9029642836  MEMB      82              0.0000000000
      8439        82  POPE      H11A           32.8620331224        2.5880248478       19.2549256131  MEMB      82              0.0000000000
      8440        82  POPE      H11B           33.2148142883        1.6454881470       17.8082102503  MEMB      82              0.0000000000
      8441        82  POPE      P              35.5443510370        0.8377731789       19.0131033407  MEMB      82              0.0000000000
      8442        82  POPE      O13            36.4912859378       -0.1469811513       19.6482642863  MEMB      82              0.0000000000
      8443        82  POPE      O14            36.0618380605        2.2403658383       19.0042743885  MEMB      82              0.0000000000
      8444        82  POPE      O11            35.1672305224        0.3457663968       17.5891107895  MEMB      82              0.0000000000
      8445        82  POPE      O12            34.1123347372        0.8408932940       19.6461895411  MEMB      82              0.0000000000
      8446        82  POPE      C1             36.1186746248        0.4770931890       16.5781969980  MEMB      82              0.0000000000
      8447        82  POPE      HA             37.1619421152        0.2459924830       16.8823457750  MEMB      82              0.0000000000
      8448        82  POPE      HB             36.0833158062        1.4901808814       16.1235278014  MEMB      82              0.0000000000
      8449        82  POPE      C2             35.7769597615       -0.4589028011       15.3775496253  MEMB      82              0.0000000000
      8450        82  POPE      HS             36.5751710962       -0.3187093303       14.6175984984  MEMB      82              0.0000000000
      8451        82  POPE      O21            34.4369487942       -0.2088906868       14.9473519216  MEMB      82              0.0000000000
      8452        82  POPE      C21            34.3288133060        0.7939232506       14.0909825726  MEMB      82              0.0000000000
      8453        82  POPE      O22            35.1667057467        1.3131320768       13.4474309773  MEMB      82              0.0000000000
      8454        82  POPE      C22            32.8115177086        1.0301917243       13.9335373467  MEMB      82              0.0000000000
      8455        82  POPE      H2R            32.3625837568        1.3567251700       14.8959067680  MEMB      82              0.0000000000
      8456        82  POPE      H2S            32.4183491622        0.0205440526       13.6878721692  MEMB      82              0.0000000000
      8457        82  POPE      C3             35.8555356080       -1.8871671872       15.8835930523  MEMB      82              0.0000000000
      8458        82  POPE      HX             35.0842176288       -2.1076215464       16.6522215575  MEMB      82              0.0000000000
      8459        82  POPE      HY             36.7556360902       -2.0540144660       16.5131181238  MEMB      82              0.0000000000
      8460        82  POPE      O31            35.7208291801       -2.8111168194       14.8495345578  MEMB      82              0.0000000000
      8461        82  POPE      C31            36.7593530346       -3.1434091630       14.0949054305  MEMB      82              0.0000000000
      8462        82  POPE      O32            37.8838166173       -2.7625864161       14.3096929253  MEMB      82              0.0000000000
      8463        82  POPE      C32            36.4962867918       -4.0653663501       12.9439278393  MEMB      82              0.0000000000
      8464        82  POPE      H2X            35.4325549021       -4.2758226991       12.7020534236  MEMB      82              0.0000000000
      8465        82  POPE      H2Y            36.9815521429       -5.0190367139       13.2428455526  MEMB      82              0.0000000000
      8466        82  POPE      C23            32.4868289162        2.0683895982       12.8699581715  MEMB      82              0.0000000000
      8467        82  POPE      H3R            33.2161591244        2.9061202518       12.8945671370  MEMB      82              0.0000000000
      8468        82  POPE      H3S            31.5031928076        2.5436306134       13.0722624980  MEMB      82              0.0000000000
      8469        82  POPE      C24            32.3860204642        1.6513589739       11.3534130005  MEMB      82              0.0000000000
      8470        82  POPE      H4R            32.1878662063        2.6246466744       10.8556512697  MEMB      82              0.0000000000
      8471        82  POPE      H4S            31.4690418607        1.0515829543       11.1697289831  MEMB      82              0.0000000000
      8472        82  POPE      C25            33.6355518174        0.9685295488       10.7061087723  MEMB      82              0.0000000000
      8473        82  POPE      H5R            33.6913736589       -0.0747957964       11.0838350209  MEMB      82              0.0000000000
      8474        82  POPE      H5S            34.5131542333        1.4814812222       11.1544562611  MEMB      82              0.0000000000
      8475        82  POPE      C26            33.6023091330        1.0871304589        9.1744830763  MEMB      82              0.0000000000
      8476        82  POPE      H6R            34.5577259468        0.6416704742        8.8236755130  MEMB      82              0.0000000000
      8477        82  POPE      H6S            33.6986276847        2.1599878407        8.9024153569  MEMB      82              0.0000000000
      8478        82  POPE      C27            32.4310546796        0.4312212153        8.5343712189  MEMB      82              0.0000000000
      8479        82  POPE      H7R            31.5364909281        0.9973154103        8.8714374468  MEMB      82              0.0000000000
      8480        82  POPE      H7S            32.3780236754       -0.6529789662        8.7710539852  MEMB      82              0.0000000000
      8481        82  POPE      C28            32.4115554537        0.4152600174        7.0173641186  MEMB      82              0.0000000000
      8482        82  POPE      H8R            32.0275710870        1.4089088313        6.7018658737  MEMB      82              0.0000000000
      8483        82  POPE      H8S            31.6123275294       -0.2770075069        6.6763048194  MEMB      82              0.0000000000
      8484        82  POPE      C29            33.6643357256        0.0755560669        6.2807812060  MEMB      82              0.0000000000
      8485        82  POPE      H91            34.5743003769        0.0544600821        6.8984540517  MEMB      82              0.0000000000
      8486        82  POPE      C210           33.7501723696       -0.2908867024        5.0024045573  MEMB      82              0.0000000000
      8487        82  POPE      H101           34.6962346546       -0.5965565593        4.5317329591  MEMB      82              0.0000000000
      8488        82  POPE      C211           32.6645460574       -0.4093191721        4.0259986876  MEMB      82              0.0000000000
      8489        82  POPE      H11R           33.0583259931       -0.3304034373        2.9901268195  MEMB      82              0.0000000000
      8490        82  POPE      H11S           31.7542132439        0.2118187039        4.1667190821  MEMB      82              0.0000000000
      8491        82  POPE      C212           32.2680864662       -1.9487630851        4.2416898418  MEMB      82              0.0000000000
      8492        82  POPE      H12R           31.8866281880       -2.0879020457        5.2758316301  MEMB      82              0.0000000000
      8493        82  POPE      H12S           33.1502239897       -2.6211635822        4.1781909440  MEMB      82              0.0000000000
      8494        82  POPE      C213           31.1698295265       -2.4214835672        3.2856917591  MEMB      82              0.0000000000
      8495        82  POPE      H13R           30.3944664846       -1.6265199716        3.3198303073  MEMB      82              0.0000000000
      8496        82  POPE      H13S           30.8030800745       -3.3841510181        3.7017291940  MEMB      82              0.0000000000
      8497        82  POPE      C214           31.6889862112       -2.7883543002        1.8354093328  MEMB      82              0.0000000000
      8498        82  POPE      H14R           31.9303587143       -1.8259162636        1.3356362422  MEMB      82              0.0000000000
      8499        82  POPE      H14S           30.9612548391       -3.4557442605        1.3261774688  MEMB      82              0.0000000000
      8500        82  POPE      C215           32.9017615990       -3.6758300065        1.7529616848  MEMB      82              0.0000000000
      8501        82  POPE      H15R           32.4838880834       -4.6489414898        2.0887553709  MEMB      82              0.0000000000
      8502        82  POPE      H15S           33.7020764440       -3.3383029616        2.4457041683  MEMB      82              0.0000000000
      8503        82  POPE      C216           33.4867331374       -3.9270551086        0.4020200049  MEMB      82              0.0000000000
      8504        82  POPE      H16R           32.6933526632       -4.1891929443       -0.3302039999  MEMB      82              0.0000000000
      8505        82  POPE      H16S           34.2394209397       -4.7242019853        0.5818500582  MEMB      82              0.0000000000
      8506        82  POPE      C217           34.1157442787       -2.6540814025       -0.1889983627  MEMB      82              0.0000000000
      8507        82  POPE      H17R           34.9621492807       -2.3528550524        0.4645935158  MEMB      82              0.0000000000
      8508        82  POPE      H17S           33.4482146890       -1.7808526066       -0.3508529942  MEMB      82              0.0000000000
      8509        82  POPE      C218           34.7416585466       -2.8827792834       -1.5511222872  MEMB      82              0.0000000000
      8510        82  POPE      H18R           33.9998800036       -3.2690559416       -2.2824749768  MEMB      82              0.0000000000
      8511        82  POPE      H18S           35.6432532657       -3.5224580234       -1.6618449485  MEMB      82              0.0000000000
      8512        82  POPE      H18T           34.9675537561       -1.8912883594       -1.9986019619  MEMB      82              0.0000000000
      8513        82  POPE      C33            37.1320333616       -3.4236912165       11.6563952439  MEMB      82              0.0000000000
      8514        82  POPE      H3X            37.0037110825       -4.1619266058       10.8361132048  MEMB      82              0.0000000000
      8515        82  POPE      H3Y            38.2251457875       -3.3732009265       11.8484291788  MEMB      82              0.0000000000
      8516        82  POPE      C34            36.4938490208       -2.0525253511       11.3146415303  MEMB      82              0.0000000000
      8517        82  POPE      H4X            36.6856780213       -1.3164043106       12.1243628595  MEMB      82              0.0000000000
      8518        82  POPE      H4Y            35.4060433701       -2.1531284059       11.1124569120  MEMB      82              0.0000000000
      8519        82  POPE      C35            37.0476714994       -1.2994085252        9.9959370906  MEMB      82              0.0000000000
      8520        82  POPE      H5X            38.1527125970       -1.4094842388       10.0289306512  MEMB      82              0.0000000000
      8521        82  POPE      H5Y            36.6719993213       -0.2638555200       10.1402330989  MEMB      82              0.0000000000
      8522        82  POPE      C36            36.4954304522       -1.8825414181        8.6575231122  MEMB      82              0.0000000000
      8523        82  POPE      H6X            35.4362018333       -1.5937668991        8.4873320206  MEMB      82              0.0000000000
      8524        82  POPE      H6Y            36.5242593325       -2.9931225862        8.6475741490  MEMB      82              0.0000000000
      8525        82  POPE      C37            37.3753412510       -1.2945804468        7.5284205690  MEMB      82              0.0000000000
      8526        82  POPE      H7X            38.3918336907       -1.7282462447        7.6424287387  MEMB      82              0.0000000000
      8527        82  POPE      H7Y            37.3891005236       -0.1959051136        7.6928730809  MEMB      82              0.0000000000
      8528        82  POPE      C38            36.9966281946       -1.6853565682        6.0718362140  MEMB      82              0.0000000000
      8529        82  POPE      H8X            35.9565859513       -1.3530385741        5.8664150489  MEMB      82              0.0000000000
      8530        82  POPE      H8Y            36.9945131197       -2.7924645558        5.9789461103  MEMB      82              0.0000000000
      8531        82  POPE      C39            37.8657147144       -1.1097467406        4.9672961561  MEMB      82              0.0000000000
      8532        82  POPE      H9X            38.9160926122       -1.4042816452        5.1777165156  MEMB      82              0.0000000000
      8533        82  POPE      H9Y            37.6108499391       -0.0284301163        4.9563719888  MEMB      82              0.0000000000
      8534        82  POPE      C310           37.4938508415       -1.6221785586        3.5268866655  MEMB      82              0.0000000000
      8535        82  POPE      H10X           36.4053071424       -1.4731459906        3.3620144477  MEMB      82              0.0000000000
      8536        82  POPE      H10Y           37.7447102531       -2.7032005461        3.5796326546  MEMB      82              0.0000000000
      8537        82  POPE      C311           38.2949501195       -0.9465580564        2.3870425635  MEMB      82              0.0000000000
      8538        82  POPE      H11X           39.1019745838       -0.3805175354        2.8995164921  MEMB      82              0.0000000000
      8539        82  POPE      H11Y           37.6640802633       -0.1697944315        1.9043811483  MEMB      82              0.0000000000
      8540        82  POPE      C312           39.0112025304       -1.9266623926        1.4449501590  MEMB      82              0.0000000000
      8541        82  POPE      H12X           39.6119707165       -2.6758748203        2.0035908785  MEMB      82              0.0000000000
      8542        82  POPE      H12Y           39.7139151973       -1.3022675405        0.8527961021  MEMB      82              0.0000000000
      8543        82  POPE      C313           37.9977850607       -2.6880185726        0.4799515910  MEMB      82              0.0000000000
      8544        82  POPE      H13X           37.8377888636       -2.0365952073       -0.4056956952  MEMB      82              0.0000000000
      8545        82  POPE      H13Y           37.0289718808       -2.7556688583        1.0195303350  MEMB      82              0.0000000000
      8546        82  POPE      C314           38.5027731477       -4.1279365318        0.1073274271  MEMB      82              0.0000000000
      8547        82  POPE      H14X           39.5926203295       -4.2165635255       -0.0893960410  MEMB      82              0.0000000000
      8548        82  POPE      H14Y           38.0115079103       -4.4408680096       -0.8387462603  MEMB      82              0.0000000000
      8549        82  POPE      C315           38.0410950552       -5.1537911584        1.1551621246  MEMB      82              0.0000000000
      8550        82  POPE      H15X           36.9499196192       -5.0511992766        1.3371827449  MEMB      82              0.0000000000
      8551        82  POPE      H15Y           38.4673773100       -4.8370166080        2.1309989623  MEMB      82              0.0000000000
      8552        82  POPE      C316           38.2282179154       -6.6173947155        0.7693422879  MEMB      82              0.0000000000
      8553        82  POPE      H16X           37.8060446097       -6.7811519621       -0.2451890122  MEMB      82              0.0000000000
      8554        82  POPE      H16Y           37.7278252878       -7.3712982734        1.4139810946  MEMB      82              0.0000000000
      8555        82  POPE      H16Z           39.3253654693       -6.7902171193        0.7425049685  MEMB      82              0.0000000000
      8556        83  POPE      N             -46.1287226018       22.2459681461       20.2351058232  MEMB      83              0.0000000000
      8557        83  POPE      HN1           -46.3006118307       21.5805017649       21.0156240910  MEMB      83              0.0000000000
      8558        83  POPE      HN2           -46.4273654809       21.7771911356       19.3560946509  MEMB      83              0.0000000000
      8559        83  POPE      HN3           -45.1548342344       22.6087299285       20.1957977553  MEMB      83              0.0000000000
      8560        83  POPE      C12           -47.2270746645       23.1874365530       20.3465000171  MEMB      83              0.0000000000
      8561        83  POPE      H12A          -47.0841461903       23.7015911283       21.3209422507  MEMB      83              0.0000000000
      8562        83  POPE      H12B          -48.2179208831       22.6903828689       20.2724573315  MEMB      83              0.0000000000
      8563        83  POPE      C11           -47.1582266724       24.2238198076       19.1952920075  MEMB      83              0.0000000000
      8564        83  POPE      H11A          -48.0729307053       24.8531320635       19.2353363060  MEMB      83              0.0000000000
      8565        83  POPE      H11B          -47.2771683293       23.7993980407       18.1754684866  MEMB      83              0.0000000000
      8566        83  POPE      P             -45.6766636666       26.2223068940       18.4715598063  MEMB      83              0.0000000000
      8567        83  POPE      O13           -44.2169776253       26.2385609004       18.3378313583  MEMB      83              0.0000000000
      8568        83  POPE      O14           -46.4205541737       27.4463168417       18.9185151922  MEMB      83              0.0000000000
      8569        83  POPE      O11           -46.3057465973       25.8401183137       17.0463167660  MEMB      83              0.0000000000
      8570        83  POPE      O12           -46.0631955950       25.0722741437       19.4488790632  MEMB      83              0.0000000000
      8571        83  POPE      C1            -46.2435550771       26.7048848392       15.9323810818  MEMB      83              0.0000000000
      8572        83  POPE      HA            -45.4523141898       27.4586442531       16.1326449576  MEMB      83              0.0000000000
      8573        83  POPE      HB            -47.2002553717       27.2037126742       15.6673975726  MEMB      83              0.0000000000
      8574        83  POPE      C2            -45.8461972949       25.9258911940       14.6107607262  MEMB      83              0.0000000000
      8575        83  POPE      HS            -45.5089775205       26.7720666846       13.9746863219  MEMB      83              0.0000000000
      8576        83  POPE      O21           -47.1088693960       25.3340349641       14.1722665642  MEMB      83              0.0000000000
      8577        83  POPE      C21           -47.1803826421       25.1290660742       12.8543760509  MEMB      83              0.0000000000
      8578        83  POPE      O22           -46.4166088501       25.6309346304       12.0086676334  MEMB      83              0.0000000000
      8579        83  POPE      C22           -48.4064443029       24.1218328807       12.6142405169  MEMB      83              0.0000000000
      8580        83  POPE      H2R           -49.3299647062       24.5543222766       13.0551306234  MEMB      83              0.0000000000
      8581        83  POPE      H2S           -48.1573254165       23.2336759399       13.2334642042  MEMB      83              0.0000000000
      8582        83  POPE      C3            -44.7162372838       24.8873512440       14.8190894793  MEMB      83              0.0000000000
      8583        83  POPE      HX            -45.0888373768       24.0990705523       15.5076414190  MEMB      83              0.0000000000
      8584        83  POPE      HY            -43.8990877683       25.4225203180       15.3484115103  MEMB      83              0.0000000000
      8585        83  POPE      O31           -44.2995359007       24.4831665345       13.5197514135  MEMB      83              0.0000000000
      8586        83  POPE      C31           -43.3791995790       25.2058091866       12.9270104882  MEMB      83              0.0000000000
      8587        83  POPE      O32           -42.8934057901       26.1562718715       13.4587583517  MEMB      83              0.0000000000
      8588        83  POPE      C32           -43.1784107358       24.6623496115       11.4353721414  MEMB      83              0.0000000000
      8589        83  POPE      H2X           -43.7385200540       25.4112856024       10.8356278095  MEMB      83              0.0000000000
      8590        83  POPE      H2Y           -43.5943988786       23.6332645015       11.3878458218  MEMB      83              0.0000000000
      8591        83  POPE      C23           -48.7086648874       23.8410533329       11.1071998538  MEMB      83              0.0000000000
      8592        83  POPE      H3R           -48.5483594905       24.7046746135       10.4269193436  MEMB      83              0.0000000000
      8593        83  POPE      H3S           -49.7422787372       23.4665099446       10.9469466507  MEMB      83              0.0000000000
      8594        83  POPE      C24           -47.8112292480       22.7194493145       10.4991360077  MEMB      83              0.0000000000
      8595        83  POPE      H4R           -47.7090579151       21.8387924533       11.1687068818  MEMB      83              0.0000000000
      8596        83  POPE      H4S           -46.8313483534       23.1270686687       10.1705007571  MEMB      83              0.0000000000
      8597        83  POPE      C25           -48.4597517509       22.1249540845        9.2231181777  MEMB      83              0.0000000000
      8598        83  POPE      H5R           -49.2779019169       21.4935718701        9.6309274426  MEMB      83              0.0000000000
      8599        83  POPE      H5S           -47.8699669857       21.3518502276        8.6857299950  MEMB      83              0.0000000000
      8600        83  POPE      C26           -48.9017871319       23.2494907213        8.2222024842  MEMB      83              0.0000000000
      8601        83  POPE      H6R           -49.7573586181       23.8195089741        8.6433882528  MEMB      83              0.0000000000
      8602        83  POPE      H6S           -49.2793173355       22.7224191432        7.3199898723  MEMB      83              0.0000000000
      8603        83  POPE      C27           -47.8498176928       24.1701828321        7.6536131215  MEMB      83              0.0000000000
      8604        83  POPE      H7R           -47.4059325785       23.5851588217        6.8199260908  MEMB      83              0.0000000000
      8605        83  POPE      H7S           -47.0513727556       24.4893551496        8.3571300590  MEMB      83              0.0000000000
      8606        83  POPE      C28           -48.3005129069       25.4916094620        7.0114391090  MEMB      83              0.0000000000
      8607        83  POPE      H8R           -48.7869664044       26.0431168804        7.8442195018  MEMB      83              0.0000000000
      8608        83  POPE      H8S           -49.1842680290       25.0997558817        6.4639457336  MEMB      83              0.0000000000
      8609        83  POPE      C29           -47.3569123852       26.2796726280        6.1580190108  MEMB      83              0.0000000000
      8610        83  POPE      H91           -46.9000838721       27.0473265661        6.7999032020  MEMB      83              0.0000000000
      8611        83  POPE      C210          -47.0753688264       26.1333925802        4.8634324890  MEMB      83              0.0000000000
      8612        83  POPE      H101          -46.5458709278       27.0061215048        4.4535833592  MEMB      83              0.0000000000
      8613        83  POPE      C211          -47.6808926214       25.0819404874        3.9547443238  MEMB      83              0.0000000000
      8614        83  POPE      H11R          -48.7889027896       25.1311102023        4.0196839633  MEMB      83              0.0000000000
      8615        83  POPE      H11S          -47.4112872291       24.0285857618        4.1829500327  MEMB      83              0.0000000000
      8616        83  POPE      C212          -47.2941874712       25.0925928262        2.4019261177  MEMB      83              0.0000000000
      8617        83  POPE      H12R          -46.2515811705       24.7098900088        2.3730797767  MEMB      83              0.0000000000
      8618        83  POPE      H12S          -47.3770229943       26.1200309021        1.9874024606  MEMB      83              0.0000000000
      8619        83  POPE      C213          -48.2563792829       24.0890531314        1.6624315362  MEMB      83              0.0000000000
      8620        83  POPE      H13R          -49.2496193030       24.5816428882        1.7342005017  MEMB      83              0.0000000000
      8621        83  POPE      H13S          -48.1705198827       23.0965163602        2.1541838712  MEMB      83              0.0000000000
      8622        83  POPE      C214          -48.0120654142       23.8992475575        0.0987831285  MEMB      83              0.0000000000
      8623        83  POPE      H14R          -48.1359130619       24.7932573765       -0.5490821217  MEMB      83              0.0000000000
      8624        83  POPE      H14S          -48.7351138776       23.1467814419       -0.2824217221  MEMB      83              0.0000000000
      8625        83  POPE      C215          -46.6234201726       23.3663893120       -0.2847677545  MEMB      83              0.0000000000
      8626        83  POPE      H15R          -46.4411928596       22.4391390848        0.2994588966  MEMB      83              0.0000000000
      8627        83  POPE      H15S          -45.8681050514       24.1340306837       -0.0117341466  MEMB      83              0.0000000000
      8628        83  POPE      C216          -46.3753760092       22.9655053945       -1.7706098071  MEMB      83              0.0000000000
      8629        83  POPE      H16R          -46.5692918316       23.7764355142       -2.5048503800  MEMB      83              0.0000000000
      8630        83  POPE      H16S          -47.1142486308       22.1919327251       -2.0705642390  MEMB      83              0.0000000000
      8631        83  POPE      C217          -44.9268613606       22.4577723433       -1.8950150273  MEMB      83              0.0000000000
      8632        83  POPE      H17R          -44.2712797120       23.1256221480       -1.2962562384  MEMB      83              0.0000000000
      8633        83  POPE      H17S          -44.5536504323       22.5453380705       -2.9377823439  MEMB      83              0.0000000000
      8634        83  POPE      C218          -44.7203603641       20.9699648735       -1.3791890824  MEMB      83              0.0000000000
      8635        83  POPE      H18R          -43.8057956545       20.4124487396       -1.6742625611  MEMB      83              0.0000000000
      8636        83  POPE      H18S          -45.5229235673       20.3192732105       -1.7876174785  MEMB      83              0.0000000000
      8637        83  POPE      H18T          -44.7585020461       20.8667728919       -0.2736503462  MEMB      83              0.0000000000
      8638        83  POPE      C33           -41.7457300051       24.6301590335       10.9250290054  MEMB      83              0.0000000000
      8639        83  POPE      H3X           -41.2533786575       23.7554169666       11.4011986467  MEMB      83              0.0000000000
      8640        83  POPE      H3Y           -41.1883118629       25.5545603167       11.1878752484  MEMB      83              0.0000000000
      8641        83  POPE      C34           -41.6619681417       24.4834185855        9.3788128193  MEMB      83              0.0000000000
      8642        83  POPE      H4X           -40.5859272365       24.5120445118        9.1037909090  MEMB      83              0.0000000000
      8643        83  POPE      H4Y           -42.0960842932       25.3894094778        8.9044243135  MEMB      83              0.0000000000
      8644        83  POPE      C35           -42.4167508871       23.3017777691        8.7449013594  MEMB      83              0.0000000000
      8645        83  POPE      H5X           -43.4812267940       23.2392762278        9.0568402293  MEMB      83              0.0000000000
      8646        83  POPE      H5Y           -41.9712187141       22.3352919964        9.0638489279  MEMB      83              0.0000000000
      8647        83  POPE      C36           -42.3265573712       23.2782870667        7.3044842412  MEMB      83              0.0000000000
      8648        83  POPE      H6X           -41.2675332814       23.1857109276        6.9816549345  MEMB      83              0.0000000000
      8649        83  POPE      H6Y           -42.6956083922       24.2773058457        6.9881239060  MEMB      83              0.0000000000
      8650        83  POPE      C37           -43.4511511992       22.3321553036        6.8164798511  MEMB      83              0.0000000000
      8651        83  POPE      H7X           -44.4416227301       22.5374292940        7.2759903103  MEMB      83              0.0000000000
      8652        83  POPE      H7Y           -43.1841799008       21.2663979079        6.9814303915  MEMB      83              0.0000000000
      8653        83  POPE      C38           -43.8255504042       22.3333652395        5.2632110301  MEMB      83              0.0000000000
      8654        83  POPE      H8X           -44.2326941638       23.3502916562        5.0776965331  MEMB      83              0.0000000000
      8655        83  POPE      H8Y           -44.6951067377       21.6452849718        5.1943750787  MEMB      83              0.0000000000
      8656        83  POPE      C39           -42.7447241692       22.0246267131        4.2849243311  MEMB      83              0.0000000000
      8657        83  POPE      H9X           -42.2116137876       21.1301792286        4.6723228574  MEMB      83              0.0000000000
      8658        83  POPE      H9Y           -41.9813630620       22.8316339633        4.2664848953  MEMB      83              0.0000000000
      8659        83  POPE      C310          -43.3593160270       21.6896877481        2.8493378594  MEMB      83              0.0000000000
      8660        83  POPE      H10X          -44.2227230300       20.9917021329        2.8085296083  MEMB      83              0.0000000000
      8661        83  POPE      H10Y          -42.5450270996       21.1061841646        2.3689453302  MEMB      83              0.0000000000
      8662        83  POPE      C311          -43.7209114459       22.8885478868        1.9902792215  MEMB      83              0.0000000000
      8663        83  POPE      H11X          -44.6560349654       23.3048347274        2.4222176994  MEMB      83              0.0000000000
      8664        83  POPE      H11Y          -44.0184009812       22.6095261087        0.9568547342  MEMB      83              0.0000000000
      8665        83  POPE      C312          -42.7089292432       24.0975957421        2.0342646208  MEMB      83              0.0000000000
      8666        83  POPE      H12X          -42.6025946337       24.4841224918        3.0704172887  MEMB      83              0.0000000000
      8667        83  POPE      H12Y          -43.2594364159       24.9117529913        1.5161812554  MEMB      83              0.0000000000
      8668        83  POPE      C313          -41.4761696495       23.8448572560        1.2527554558  MEMB      83              0.0000000000
      8669        83  POPE      H13X          -41.6754083502       23.9004754269        0.1611821876  MEMB      83              0.0000000000
      8670        83  POPE      H13Y          -41.0904597433       22.8517523855        1.5678607694  MEMB      83              0.0000000000
      8671        83  POPE      C314          -40.3507066920       24.7951760029        1.4932510240  MEMB      83              0.0000000000
      8672        83  POPE      H14X          -40.7122408497       25.8384807234        1.3702502161  MEMB      83              0.0000000000
      8673        83  POPE      H14Y          -39.5486723362       24.6943601832        0.7310840818  MEMB      83              0.0000000000
      8674        83  POPE      C315          -39.6479938872       24.5245437223        2.8503187397  MEMB      83              0.0000000000
      8675        83  POPE      H15X          -40.3764305431       24.4888957244        3.6884302259  MEMB      83              0.0000000000
      8676        83  POPE      H15Y          -38.9341801608       25.3441467134        3.0806267261  MEMB      83              0.0000000000
      8677        83  POPE      C316          -38.8324420976       23.2649212250        3.0396653860  MEMB      83              0.0000000000
      8678        83  POPE      H16X          -39.5993387725       22.5254163381        3.3548208061  MEMB      83              0.0000000000
      8679        83  POPE      H16Y          -38.1536168395       23.3551948024        3.9145184217  MEMB      83              0.0000000000
      8680        83  POPE      H16Z          -38.2316373389       22.9799440579        2.1496422987  MEMB      83              0.0000000000
      8681        84  POPE      N             -47.8252523019       35.5761258598       20.2816299271  MEMB      84              0.0000000000
      8682        84  POPE      HN1           -48.4615457671       35.7794102453       21.0787534466  MEMB      84              0.0000000000
      8683        84  POPE      HN2           -46.8749094343       35.5530445433       20.7034306878  MEMB      84              0.0000000000
      8684        84  POPE      HN3           -47.8081481292       36.3525496026       19.5899120850  MEMB      84              0.0000000000
      8685        84  POPE      C12           -48.2076282046       34.2838439708       19.6363639807  MEMB      84              0.0000000000
      8686        84  POPE      H12A          -49.0891749539       34.7101039837       19.1114840867  MEMB      84              0.0000000000
      8687        84  POPE      H12B          -48.6392289690       33.5695827295       20.3697621086  MEMB      84              0.0000000000
      8688        84  POPE      C11           -47.1518769788       33.7237608635       18.6982278473  MEMB      84              0.0000000000
      8689        84  POPE      H11A          -46.7933716320       34.4874135420       17.9752965964  MEMB      84              0.0000000000
      8690        84  POPE      H11B          -47.7378936064       32.9221396217       18.1999219108  MEMB      84              0.0000000000
      8691        84  POPE      P             -44.9044836843       32.5165235024       18.6919050982  MEMB      84              0.0000000000
      8692        84  POPE      O13           -45.2672162677       31.3939439247       17.7901798590  MEMB      84              0.0000000000
      8693        84  POPE      O14           -43.9174507829       32.2393109997       19.7432634495  MEMB      84              0.0000000000
      8694        84  POPE      O11           -44.4129276178       33.6884898135       17.7307213237  MEMB      84              0.0000000000
      8695        84  POPE      O12           -46.1131281613       33.1876050641       19.4277085129  MEMB      84              0.0000000000
      8696        84  POPE      C1            -43.6460781674       34.8043555385       18.2007378228  MEMB      84              0.0000000000
      8697        84  POPE      HA            -42.5638852195       34.6431832941       18.3936186849  MEMB      84              0.0000000000
      8698        84  POPE      HB            -44.0630614367       35.1123685235       19.1833739757  MEMB      84              0.0000000000
      8699        84  POPE      C2            -43.7274262078       36.0063386456       17.2667833577  MEMB      84              0.0000000000
      8700        84  POPE      HS            -43.2345062740       36.9269601786       17.6460018657  MEMB      84              0.0000000000
      8701        84  POPE      O21           -45.1074573281       36.2290666543       17.0495572059  MEMB      84              0.0000000000
      8702        84  POPE      C21           -45.4109011585       37.3825563184       16.5373157020  MEMB      84              0.0000000000
      8703        84  POPE      O22           -44.6522418696       38.2037452365       16.0344699037  MEMB      84              0.0000000000
      8704        84  POPE      C22           -46.9485004295       37.6183836876       16.7399158655  MEMB      84              0.0000000000
      8705        84  POPE      H2R           -47.0218805603       38.5351581677       17.3631826046  MEMB      84              0.0000000000
      8706        84  POPE      H2S           -47.3903962435       36.6672074479       17.1064024213  MEMB      84              0.0000000000
      8707        84  POPE      C3            -42.9301362099       35.7717902734       15.8998685279  MEMB      84              0.0000000000
      8708        84  POPE      HX            -42.0765281657       35.1416647921       16.2294380848  MEMB      84              0.0000000000
      8709        84  POPE      HY            -42.5033276030       36.6601295525       15.3870247569  MEMB      84              0.0000000000
      8710        84  POPE      O31           -43.8032492729       35.1184322555       14.9477848453  MEMB      84              0.0000000000
      8711        84  POPE      C31           -43.5893502325       33.8886269173       14.5939449029  MEMB      84              0.0000000000
      8712        84  POPE      O32           -42.6641455346       33.1605166953       14.9114998773  MEMB      84              0.0000000000
      8713        84  POPE      C32           -44.7799972600       33.5049468381       13.7321053052  MEMB      84              0.0000000000
      8714        84  POPE      H2X           -44.3105366403       33.1965652610       12.7735501930  MEMB      84              0.0000000000
      8715        84  POPE      H2Y           -45.3867230231       34.3676482046       13.3828901273  MEMB      84              0.0000000000
      8716        84  POPE      C23           -47.4540485774       37.9215775712       15.3299601640  MEMB      84              0.0000000000
      8717        84  POPE      H3R           -47.1449518925       38.8965639240       14.8961612986  MEMB      84              0.0000000000
      8718        84  POPE      H3S           -48.5218029659       38.0395360227       15.6133451343  MEMB      84              0.0000000000
      8719        84  POPE      C24           -47.3928953162       36.7283828992       14.3456773967  MEMB      84              0.0000000000
      8720        84  POPE      H4R           -47.7760496271       35.8413947057       14.8940984422  MEMB      84              0.0000000000
      8721        84  POPE      H4S           -46.3150974675       36.5300944291       14.1630447590  MEMB      84              0.0000000000
      8722        84  POPE      C25           -48.2088967147       36.9454445750       13.0499403947  MEMB      84              0.0000000000
      8723        84  POPE      H5R           -47.8058350967       37.7835670382       12.4421467182  MEMB      84              0.0000000000
      8724        84  POPE      H5S           -49.2275294426       37.1410894833       13.4479745460  MEMB      84              0.0000000000
      8725        84  POPE      C26           -48.1365207151       35.6753823471       12.1298586697  MEMB      84              0.0000000000
      8726        84  POPE      H6R           -48.5388198035       34.8770155178       12.7894697885  MEMB      84              0.0000000000
      8727        84  POPE      H6S           -47.1317721949       35.3101250870       11.8275530765  MEMB      84              0.0000000000
      8728        84  POPE      C27           -49.0642369117       35.7215883830       10.9434683884  MEMB      84              0.0000000000
      8729        84  POPE      H7R           -48.8148622223       36.6252305791       10.3471767327  MEMB      84              0.0000000000
      8730        84  POPE      H7S           -50.1058933098       35.7997190076       11.3218444834  MEMB      84              0.0000000000
      8731        84  POPE      C28           -48.9800455412       34.5108250855        9.9384167334  MEMB      84              0.0000000000
      8732        84  POPE      H8R           -49.8518980673       34.8078204030        9.3171376467  MEMB      84              0.0000000000
      8733        84  POPE      H8S           -49.1315525910       33.6231697279       10.5891352777  MEMB      84              0.0000000000
      8734        84  POPE      C29           -47.6496413438       34.4005214864        9.2792112259  MEMB      84              0.0000000000
      8735        84  POPE      H91           -46.8755698261       33.7437152390        9.7027901089  MEMB      84              0.0000000000
      8736        84  POPE      C210          -47.2312258757       35.0678777243        8.1531110202  MEMB      84              0.0000000000
      8737        84  POPE      H101          -46.2798392986       34.7759087329        7.6844772634  MEMB      84              0.0000000000
      8738        84  POPE      C211          -48.1414162972       35.9829624455        7.4105073936  MEMB      84              0.0000000000
      8739        84  POPE      H11R          -48.0943547382       36.9983501816        7.8589427821  MEMB      84              0.0000000000
      8740        84  POPE      H11S          -49.2326133406       35.7748898414        7.4282738997  MEMB      84              0.0000000000
      8741        84  POPE      C212          -47.7349870075       36.0858523494        5.9451728391  MEMB      84              0.0000000000
      8742        84  POPE      H12R          -46.6365275781       36.2262883766        5.8558103536  MEMB      84              0.0000000000
      8743        84  POPE      H12S          -48.3083155459       36.8670677416        5.4017415614  MEMB      84              0.0000000000
      8744        84  POPE      C213          -48.0930926352       34.7796386827        5.2923101571  MEMB      84              0.0000000000
      8745        84  POPE      H13R          -49.1966010635       34.6515738093        5.3060647455  MEMB      84              0.0000000000
      8746        84  POPE      H13S          -47.7433303358       33.9429692057        5.9341598387  MEMB      84              0.0000000000
      8747        84  POPE      C214          -47.3621423825       34.6504388682        3.9331734144  MEMB      84              0.0000000000
      8748        84  POPE      H14R          -46.2701672480       34.5961438628        4.1305648230  MEMB      84              0.0000000000
      8749        84  POPE      H14S          -47.6205767935       35.5292299473        3.3044764133  MEMB      84              0.0000000000
      8750        84  POPE      C215          -47.5546387941       33.3519248820        3.1984028639  MEMB      84              0.0000000000
      8751        84  POPE      H15R          -47.1552745748       32.5859172523        3.8970167570  MEMB      84              0.0000000000
      8752        84  POPE      H15S          -46.8447124162       33.5647392153        2.3707344753  MEMB      84              0.0000000000
      8753        84  POPE      C216          -49.0151526938       33.2020506028        2.7191413180  MEMB      84              0.0000000000
      8754        84  POPE      H16R          -49.4418416713       34.2072758041        2.5147381050  MEMB      84              0.0000000000
      8755        84  POPE      H16S          -49.6349776039       32.7240592166        3.5075968986  MEMB      84              0.0000000000
      8756        84  POPE      C217          -49.0869852178       32.5238550475        1.3182046470  MEMB      84              0.0000000000
      8757        84  POPE      H17R          -50.1601138852       32.3439018904        1.0938540258  MEMB      84              0.0000000000
      8758        84  POPE      H17S          -48.7521762662       31.4648351356        1.3446755012  MEMB      84              0.0000000000
      8759        84  POPE      C218          -48.3495529957       33.2454782587        0.1454291648  MEMB      84              0.0000000000
      8760        84  POPE      H18R          -47.2460901385       33.2982274267        0.2633612241  MEMB      84              0.0000000000
      8761        84  POPE      H18S          -48.7596323239       34.2771477793        0.1028354944  MEMB      84              0.0000000000
      8762        84  POPE      H18T          -48.4859320855       32.6034112023       -0.7509364147  MEMB      84              0.0000000000
      8763        84  POPE      C33           -45.6069472425       32.3260852129       14.4140198415  MEMB      84              0.0000000000
      8764        84  POPE      H3X           -45.7410448387       32.5392339074       15.4961039959  MEMB      84              0.0000000000
      8765        84  POPE      H3Y           -45.0257489785       31.3859093814       14.3017739452  MEMB      84              0.0000000000
      8766        84  POPE      C34           -47.0066295070       31.9429229720       13.8027738229  MEMB      84              0.0000000000
      8767        84  POPE      H4X           -47.7447620827       32.7574101160       13.9643041470  MEMB      84              0.0000000000
      8768        84  POPE      H4Y           -47.3376511908       30.9669204844       14.2177015607  MEMB      84              0.0000000000
      8769        84  POPE      C35           -46.8048787004       31.5987297375       12.2557465744  MEMB      84              0.0000000000
      8770        84  POPE      H5X           -46.5014753127       32.5043254807       11.6881515191  MEMB      84              0.0000000000
      8771        84  POPE      H5Y           -47.8221740577       31.2321088102       12.0007561330  MEMB      84              0.0000000000
      8772        84  POPE      C36           -45.8203657216       30.4762111591       12.0029623289  MEMB      84              0.0000000000
      8773        84  POPE      H6X           -46.0753273414       29.6712358560       12.7249943711  MEMB      84              0.0000000000
      8774        84  POPE      H6Y           -44.7883307610       30.8423777053       12.1904376592  MEMB      84              0.0000000000
      8775        84  POPE      C37           -45.8765721929       29.7696503389       10.6608225880  MEMB      84              0.0000000000
      8776        84  POPE      H7X           -46.9114794239       29.8923869337       10.2758250186  MEMB      84              0.0000000000
      8777        84  POPE      H7Y           -45.5063304375       28.7230585453       10.7042755537  MEMB      84              0.0000000000
      8778        84  POPE      C38           -44.9974079608       30.4718972015        9.5963985998  MEMB      84              0.0000000000
      8779        84  POPE      H8X           -43.9257641345       30.2612812354        9.8002157060  MEMB      84              0.0000000000
      8780        84  POPE      H8Y           -45.0845137960       31.5774526834        9.5294607480  MEMB      84              0.0000000000
      8781        84  POPE      C39           -45.0647133730       29.7993606136        8.2299630195  MEMB      84              0.0000000000
      8782        84  POPE      H9X           -44.9009927976       28.7517551098        8.5616834780  MEMB      84              0.0000000000
      8783        84  POPE      H9Y           -44.1976180481       30.1493121671        7.6299619978  MEMB      84              0.0000000000
      8784        84  POPE      C310          -46.4651596891       29.9916243630        7.5483045000  MEMB      84              0.0000000000
      8785        84  POPE      H10X          -46.7744100352       31.0529381148        7.4374073193  MEMB      84              0.0000000000
      8786        84  POPE      H10Y          -47.1774766383       29.3774806119        8.1397034121  MEMB      84              0.0000000000
      8787        84  POPE      C311          -46.3819785620       29.3934039510        6.1935601409  MEMB      84              0.0000000000
      8788        84  POPE      H11X          -47.4606841113       29.4750105287        5.9404675277  MEMB      84              0.0000000000
      8789        84  POPE      H11Y          -45.9875044793       28.3559559108        6.2426832693  MEMB      84              0.0000000000
      8790        84  POPE      C312          -45.6637617610       30.2558212060        5.1727267244  MEMB      84              0.0000000000
      8791        84  POPE      H12X          -44.5607768325       30.1738673132        5.2777456437  MEMB      84              0.0000000000
      8792        84  POPE      H12Y          -46.0360901781       31.2973720592        5.2769612023  MEMB      84              0.0000000000
      8793        84  POPE      C313          -45.8471436908       29.8090601616        3.7036489261  MEMB      84              0.0000000000
      8794        84  POPE      H13X          -46.9045222927       29.8893291718        3.3722457710  MEMB      84              0.0000000000
      8795        84  POPE      H13Y          -45.6895183025       28.7145173589        3.5966356270  MEMB      84              0.0000000000
      8796        84  POPE      C314          -45.0061982272       30.6760544114        2.6307043962  MEMB      84              0.0000000000
      8797        84  POPE      H14X          -43.9199023064       30.4615499445        2.7216418214  MEMB      84              0.0000000000
      8798        84  POPE      H14Y          -45.2705026568       31.7117788566        2.9335893091  MEMB      84              0.0000000000
      8799        84  POPE      C315          -45.3825840701       30.3880394390        1.1623420686  MEMB      84              0.0000000000
      8800        84  POPE      H15X          -46.4555216460       30.6453699325        1.0323127895  MEMB      84              0.0000000000
      8801        84  POPE      H15Y          -45.4455807562       29.3145767722        0.8830016508  MEMB      84              0.0000000000
      8802        84  POPE      C316          -44.4430929476       31.0463588143        0.1347863846  MEMB      84              0.0000000000
      8803        84  POPE      H16X          -44.3369491561       32.1368391486        0.3189235601  MEMB      84              0.0000000000
      8804        84  POPE      H16Y          -44.7450541074       30.8837991461       -0.9219613880  MEMB      84              0.0000000000
      8805        84  POPE      H16Z          -43.4028597481       30.6561861529        0.1337687307  MEMB      84              0.0000000000
      8806        85  POPC      N             -38.3372800467        3.4343018962       17.3299555071  MEMB      85              0.0000000000
      8807        85  POPC      C12           -38.7616873259        3.7183559203       18.7724786862  MEMB      85              0.0000000000
      8808        85  POPC      H12A          -38.3476523941        2.9029057940       19.3469490603  MEMB      85              0.0000000000
      8809        85  POPC      H12B          -39.8305452666        3.7810979271       18.9139212000  MEMB      85              0.0000000000
      8810        85  POPC      C13           -36.8559811477        3.3976727247       17.2706716463  MEMB      85              0.0000000000
      8811        85  POPC      H13A          -36.4994499134        3.1452892968       16.2829530189  MEMB      85              0.0000000000
      8812        85  POPC      H13B          -36.5588576942        4.4122754031       17.4913500687  MEMB      85              0.0000000000
      8813        85  POPC      H13C          -36.4066288614        2.7164856079       17.9781082337  MEMB      85              0.0000000000
      8814        85  POPC      C14           -38.9803916827        2.1352293304       16.7958160282  MEMB      85              0.0000000000
      8815        85  POPC      H14A          -38.6732360619        2.0237891446       15.7664295482  MEMB      85              0.0000000000
      8816        85  POPC      H14B          -38.7458795240        1.3119478989       17.4543079901  MEMB      85              0.0000000000
      8817        85  POPC      H14C          -40.0462786753        2.2817452640       16.8897211102  MEMB      85              0.0000000000
      8818        85  POPC      C15           -38.8645669140        4.3961578773       16.4129307461  MEMB      85              0.0000000000
      8819        85  POPC      H15A          -38.7313792057        4.1348611654       15.3735148331  MEMB      85              0.0000000000
      8820        85  POPC      H15B          -38.4758009522        5.3915323757       16.5694256299  MEMB      85              0.0000000000
      8821        85  POPC      H15C          -39.9345123619        4.4344004473       16.5548956292  MEMB      85              0.0000000000
      8822        85  POPC      C11           -38.2296033446        5.0880534250       19.5137594773  MEMB      85              0.0000000000
      8823        85  POPC      H11A          -38.7368059831        5.0265980743       20.5003139493  MEMB      85              0.0000000000
      8824        85  POPC      H11B          -38.6631281428        5.9857929903       19.0234117831  MEMB      85              0.0000000000
      8825        85  POPC      P             -35.9516428471        4.8146357770       20.6223346759  MEMB      85              0.0000000000
      8826        85  POPC      O13           -35.5809031927        3.3925496645       20.5070537393  MEMB      85              0.0000000000
      8827        85  POPC      O14           -36.6947409643        5.1601402190       21.8695414541  MEMB      85              0.0000000000
      8828        85  POPC      O12           -36.8122549591        5.2195576842       19.4537976973  MEMB      85              0.0000000000
      8829        85  POPC      O11           -34.7120764355        5.7065152049       20.4516603019  MEMB      85              0.0000000000
      8830        85  POPC      C1            -33.5668758658        5.2126061750       19.6980004982  MEMB      85              0.0000000000
      8831        85  POPC      HA            -33.8551157261        4.2862889513       19.1565439231  MEMB      85              0.0000000000
      8832        85  POPC      HB            -32.6801943513        5.0154566085       20.3377263370  MEMB      85              0.0000000000
      8833        85  POPC      C2            -33.1338190462        6.3869905966       18.7299920378  MEMB      85              0.0000000000
      8834        85  POPC      HS            -32.6423485543        7.1602215822       19.3583961616  MEMB      85              0.0000000000
      8835        85  POPC      O21           -34.1788274020        6.8683236560       17.8421929745  MEMB      85              0.0000000000
      8836        85  POPC      C21           -34.6426171060        8.0963795412       18.0633612093  MEMB      85              0.0000000000
      8837        85  POPC      O22           -34.1980868389        8.8914296182       18.8764923801  MEMB      85              0.0000000000
      8838        85  POPC      C22           -35.8273069435        8.4062619890       17.1934092123  MEMB      85              0.0000000000
      8839        85  POPC      H2R           -35.6325836174        9.3232049056       16.5970710423  MEMB      85              0.0000000000
      8840        85  POPC      H2S           -36.6967743488        8.6977573012       17.8206075251  MEMB      85              0.0000000000
      8841        85  POPC      C3            -32.0527338046        5.8823677008       17.7718041749  MEMB      85              0.0000000000
      8842        85  POPC      HX            -31.2968881026        5.3622711599       18.3983169361  MEMB      85              0.0000000000
      8843        85  POPC      HY            -31.5201804202        6.7860573477       17.4056714525  MEMB      85              0.0000000000
      8844        85  POPC      O31           -32.6107596528        4.9788633808       16.7348143080  MEMB      85              0.0000000000
      8845        85  POPC      C31           -32.1564321589        5.1375642966       15.5241494516  MEMB      85              0.0000000000
      8846        85  POPC      O32           -31.5772290635        6.1365596360       15.0937766504  MEMB      85              0.0000000000
      8847        85  POPC      C32           -32.5196456477        3.8827576830       14.7082039744  MEMB      85              0.0000000000
      8848        85  POPC      H2X           -33.6212329261        3.7458487735       14.7538351782  MEMB      85              0.0000000000
      8849        85  POPC      H2Y           -31.9795145681        2.9770794928       15.0579563913  MEMB      85              0.0000000000
      8850        85  POPC      C23           -36.1933743986        7.2454910690       16.2957743682  MEMB      85              0.0000000000
      8851        85  POPC      H3R           -37.2366074898        7.4339271693       15.9633927006  MEMB      85              0.0000000000
      8852        85  POPC      H3S           -36.2130793190        6.2463297312       16.7811705905  MEMB      85              0.0000000000
      8853        85  POPC      C24           -35.3769026643        7.0923013993       14.9382178579  MEMB      85              0.0000000000
      8854        85  POPC      H4R           -34.3095264801        6.9033414874       15.1817814649  MEMB      85              0.0000000000
      8855        85  POPC      H4S           -35.5077722523        8.0720296015       14.4309445254  MEMB      85              0.0000000000
      8856        85  POPC      C25           -35.7145892993        5.9453756506       13.9032007908  MEMB      85              0.0000000000
      8857        85  POPC      H5R           -35.7393846578        4.8868048496       14.2395549303  MEMB      85              0.0000000000
      8858        85  POPC      H5S           -34.8573597544        5.9962505993       13.1982965002  MEMB      85              0.0000000000
      8859        85  POPC      C26           -36.9897657925        6.0935861535       13.1594242679  MEMB      85              0.0000000000
      8860        85  POPC      H6R           -37.0492362848        7.1258862446       12.7530494178  MEMB      85              0.0000000000
      8861        85  POPC      H6S           -37.8254303814        5.8630881525       13.8543029346  MEMB      85              0.0000000000
      8862        85  POPC      C27           -37.1489819010        5.0649874350       12.0683921045  MEMB      85              0.0000000000
      8863        85  POPC      H7R           -37.1110546026        4.1047315195       12.6258783537  MEMB      85              0.0000000000
      8864        85  POPC      H7S           -36.3593853728        5.1400122819       11.2904271350  MEMB      85              0.0000000000
      8865        85  POPC      C28           -38.3963323193        5.0485447564       11.1470212298  MEMB      85              0.0000000000
      8866        85  POPC      H8R           -38.3081461977        5.8919187654       10.4292018351  MEMB      85              0.0000000000
      8867        85  POPC      H8S           -39.2633675097        5.0872426316       11.8406155235  MEMB      85              0.0000000000
      8868        85  POPC      C29           -38.3282671997        3.7004784420       10.4506006174  MEMB      85              0.0000000000
      8869        85  POPC      H91           -38.5266780681        2.8608914553       11.1330419225  MEMB      85              0.0000000000
      8870        85  POPC      C210          -38.0627264928        3.4309603499        9.1343412433  MEMB      85              0.0000000000
      8871        85  POPC      H101          -38.1531157515        2.3886261066        8.7946803280  MEMB      85              0.0000000000
      8872        85  POPC      C211          -37.7613444889        4.5068154722        8.0772161944  MEMB      85              0.0000000000
      8873        85  POPC      H11R          -37.3537993623        3.9598956938        7.2002291146  MEMB      85              0.0000000000
      8874        85  POPC      H11S          -37.0344728617        5.2465539068        8.4756709107  MEMB      85              0.0000000000
      8875        85  POPC      C212          -38.9886183601        5.2397167133        7.6969912381  MEMB      85              0.0000000000
      8876        85  POPC      H12R          -39.3703590020        5.7946583864        8.5805258780  MEMB      85              0.0000000000
      8877        85  POPC      H12S          -39.7673486372        4.5732278792        7.2683969124  MEMB      85              0.0000000000
      8878        85  POPC      C213          -38.7458125230        6.2963131911        6.6382983783  MEMB      85              0.0000000000
      8879        85  POPC      H13R          -37.7522777689        6.7473283007        6.8475701386  MEMB      85              0.0000000000
      8880        85  POPC      H13S          -39.4356731808        7.1616786820        6.7360534258  MEMB      85              0.0000000000
      8881        85  POPC      C214          -38.8532267122        5.6689326956        5.2008863972  MEMB      85              0.0000000000
      8882        85  POPC      H14R          -39.8427236752        5.1798218224        5.0744457651  MEMB      85              0.0000000000
      8883        85  POPC      H14S          -38.1364808891        4.8295446583        5.0743000046  MEMB      85              0.0000000000
      8884        85  POPC      C215          -38.6350916828        6.7329070484        4.0389694015  MEMB      85              0.0000000000
      8885        85  POPC      H15R          -37.5767169968        7.0655885670        3.9799215417  MEMB      85              0.0000000000
      8886        85  POPC      H15S          -39.0481905921        7.6824925436        4.4414093776  MEMB      85              0.0000000000
      8887        85  POPC      C216          -39.3027012995        6.3499425537        2.7600222193  MEMB      85              0.0000000000
      8888        85  POPC      H16R          -40.3859694196        6.1470293745        2.9002983457  MEMB      85              0.0000000000
      8889        85  POPC      H16S          -38.8418795915        5.4189281920        2.3660975569  MEMB      85              0.0000000000
      8890        85  POPC      C217          -39.2381095550        7.5217291982        1.6784343679  MEMB      85              0.0000000000
      8891        85  POPC      H17R          -39.4798285409        8.4710870593        2.2024684131  MEMB      85              0.0000000000
      8892        85  POPC      H17S          -39.8922861517        7.3239088176        0.8025105316  MEMB      85              0.0000000000
      8893        85  POPC      C218          -37.8122213762        7.7453205437        1.1810398743  MEMB      85              0.0000000000
      8894        85  POPC      H18R          -37.0795938340        8.0851806428        1.9439780567  MEMB      85              0.0000000000
      8895        85  POPC      H18S          -37.6219164152        8.3869799015        0.2942598517  MEMB      85              0.0000000000
      8896        85  POPC      H18T          -37.4362357715        6.7975311850        0.7398469000  MEMB      85              0.0000000000
      8897        85  POPC      C33           -32.1632596711        4.1035425839       13.1933170241  MEMB      85              0.0000000000
      8898        85  POPC      H3X           -31.0724067292        3.9709795235       13.0296459052  MEMB      85              0.0000000000
      8899        85  POPC      H3Y           -32.4819657910        5.1224452414       12.8857705962  MEMB      85              0.0000000000
      8900        85  POPC      C34           -32.8928613874        3.0751662450       12.4660466364  MEMB      85              0.0000000000
      8901        85  POPC      H4X           -33.9905226803        3.0993941475       12.6359703486  MEMB      85              0.0000000000
      8902        85  POPC      H4Y           -32.4552740985        2.0893459289       12.7324975591  MEMB      85              0.0000000000
      8903        85  POPC      C35           -32.9118620784        3.2908116305       10.9567863178  MEMB      85              0.0000000000
      8904        85  POPC      H5X           -33.2748942248        2.3352560751       10.5215367164  MEMB      85              0.0000000000
      8905        85  POPC      H5Y           -31.8668582457        3.5415925329       10.6750124268  MEMB      85              0.0000000000
      8906        85  POPC      C36           -33.7734964263        4.4930761909       10.4636645795  MEMB      85              0.0000000000
      8907        85  POPC      H6X           -33.8046883670        5.3356846017       11.1871005651  MEMB      85              0.0000000000
      8908        85  POPC      H6Y           -34.7892771939        4.1553884302       10.1662128771  MEMB      85              0.0000000000
      8909        85  POPC      C37           -33.1697174850        5.2103322163        9.2696279725  MEMB      85              0.0000000000
      8910        85  POPC      H7X           -33.3133810807        4.5646940919        8.3769721643  MEMB      85              0.0000000000
      8911        85  POPC      H7Y           -32.0775881803        5.2424174598        9.4709849452  MEMB      85              0.0000000000
      8912        85  POPC      C38           -33.8708660547        6.5354722874        8.9727697752  MEMB      85              0.0000000000
      8913        85  POPC      H8X           -33.6509989874        7.3090890335        9.7392529101  MEMB      85              0.0000000000
      8914        85  POPC      H8Y           -34.9660258887        6.4568764145        8.8031565163  MEMB      85              0.0000000000
      8915        85  POPC      C39           -33.4775638685        7.2386222354        7.6618687918  MEMB      85              0.0000000000
      8916        85  POPC      H9X           -32.4011925780        7.4790686038        7.5279617939  MEMB      85              0.0000000000
      8917        85  POPC      H9Y           -33.9987072506        8.1872810605        7.9124226370  MEMB      85              0.0000000000
      8918        85  POPC      C310          -34.1897180429        6.7725954384        6.3339905497  MEMB      85              0.0000000000
      8919        85  POPC      H10X          -34.0287149818        7.6124879916        5.6247806203  MEMB      85              0.0000000000
      8920        85  POPC      H10Y          -35.2735289209        6.6124171049        6.5184311518  MEMB      85              0.0000000000
      8921        85  POPC      C311          -33.6150023108        5.3931996408        5.6262617449  MEMB      85              0.0000000000
      8922        85  POPC      H11X          -33.4957501268        4.5882960516        6.3827215790  MEMB      85              0.0000000000
      8923        85  POPC      H11Y          -32.5988227334        5.5506811438        5.2056679842  MEMB      85              0.0000000000
      8924        85  POPC      C312          -34.5037613756        4.9556381362        4.4503826314  MEMB      85              0.0000000000
      8925        85  POPC      H12X          -34.4229308902        5.7555552872        3.6836223484  MEMB      85              0.0000000000
      8926        85  POPC      H12Y          -35.5643256810        4.8375251628        4.7595324932  MEMB      85              0.0000000000
      8927        85  POPC      C313          -34.1043274738        3.4959688682        4.0025801215  MEMB      85              0.0000000000
      8928        85  POPC      H13X          -33.7632361446        2.8985885723        4.8749991856  MEMB      85              0.0000000000
      8929        85  POPC      H13Y          -33.1948358262        3.5545922195        3.3671992396  MEMB      85              0.0000000000
      8930        85  POPC      C314          -35.3306500803        2.7877845230        3.3352134928  MEMB      85              0.0000000000
      8931        85  POPC      H14X          -36.2624924527        2.8423626291        3.9377188391  MEMB      85              0.0000000000
      8932        85  POPC      H14Y          -34.9789703651        1.7339544098        3.3260465371  MEMB      85              0.0000000000
      8933        85  POPC      C315          -35.6100221347        3.4382935380        1.9980758751  MEMB      85              0.0000000000
      8934        85  POPC      H15X          -34.6202972034        3.4399841649        1.4933356044  MEMB      85              0.0000000000
      8935        85  POPC      H15Y          -35.7649128086        4.5360542815        2.0705407101  MEMB      85              0.0000000000
      8936        85  POPC      C316          -36.6055292003        2.6965324891        1.1405950114  MEMB      85              0.0000000000
      8937        85  POPC      H16X          -37.6159463132        2.5777733046        1.5869968630  MEMB      85              0.0000000000
      8938        85  POPC      H16Y          -36.2118317198        1.6713854865        0.9720818432  MEMB      85              0.0000000000
      8939        85  POPC      H16Z          -36.6107185464        3.1550106577        0.1286211547  MEMB      85              0.0000000000
      8940        86  POPE      N             -22.7557089944      -19.3529732711       19.4405796623  MEMB      86              0.0000000000
      8941        86  POPE      HN1           -22.0477163722      -18.6804304123       19.7983960947  MEMB      86              0.0000000000
      8942        86  POPE      HN2           -22.8460723154      -19.2813848623       18.4069890292  MEMB      86              0.0000000000
      8943        86  POPE      HN3           -23.6169489586      -19.1379282277       19.9824479390  MEMB      86              0.0000000000
      8944        86  POPE      C12           -22.1505449760      -20.6342432966       20.0439679597  MEMB      86              0.0000000000
      8945        86  POPE      H12A          -21.7319672985      -20.4179935133       21.0501239881  MEMB      86              0.0000000000
      8946        86  POPE      H12B          -21.3009128299      -20.9557131906       19.4043561606  MEMB      86              0.0000000000
      8947        86  POPE      C11           -23.1540273972      -21.8250567459       20.1677100832  MEMB      86              0.0000000000
      8948        86  POPE      H11A          -23.9356078565      -21.4477711855       20.8613299710  MEMB      86              0.0000000000
      8949        86  POPE      H11B          -22.5805023838      -22.7067474251       20.5254970178  MEMB      86              0.0000000000
      8950        86  POPE      P             -24.5287031083      -23.4452291218       18.5302401533  MEMB      86              0.0000000000
      8951        86  POPE      O13           -25.8033476761      -23.1177195024       17.8325183131  MEMB      86              0.0000000000
      8952        86  POPE      O14           -24.5820061672      -24.3410665005       19.6920222964  MEMB      86              0.0000000000
      8953        86  POPE      O11           -23.5442912615      -23.9872759400       17.4167284182  MEMB      86              0.0000000000
      8954        86  POPE      O12           -23.7893336216      -22.0473612253       18.8762331177  MEMB      86              0.0000000000
      8955        86  POPE      C1            -23.0982026035      -25.3224159915       17.4226151307  MEMB      86              0.0000000000
      8956        86  POPE      HA            -23.9489645214      -25.9917792647       17.6725708425  MEMB      86              0.0000000000
      8957        86  POPE      HB            -22.3663809089      -25.4692475396       18.2455359342  MEMB      86              0.0000000000
      8958        86  POPE      C2            -22.5415366894      -25.6788274499       16.0892420303  MEMB      86              0.0000000000
      8959        86  POPE      HS            -21.8387823765      -26.5393153645       16.0934499159  MEMB      86              0.0000000000
      8960        86  POPE      O21           -21.8981045774      -24.5231119419       15.4663337423  MEMB      86              0.0000000000
      8961        86  POPE      C21           -20.7796761909      -24.0636511443       16.1256388394  MEMB      86              0.0000000000
      8962        86  POPE      O22           -20.2688404918      -24.6056214145       17.0629020219  MEMB      86              0.0000000000
      8963        86  POPE      C22           -20.2247319680      -22.7579810859       15.5023612248  MEMB      86              0.0000000000
      8964        86  POPE      H2R           -19.9791903418      -22.9832871516       14.4425179732  MEMB      86              0.0000000000
      8965        86  POPE      H2S           -19.2644159812      -22.5779476039       16.0312298615  MEMB      86              0.0000000000
      8966        86  POPE      C3            -23.6916557945      -26.1457414084       15.1100257131  MEMB      86              0.0000000000
      8967        86  POPE      HX            -24.1473295822      -27.1297541842       15.3516888972  MEMB      86              0.0000000000
      8968        86  POPE      HY            -23.3439624786      -26.1160123736       14.0552523818  MEMB      86              0.0000000000
      8969        86  POPE      O31           -24.7051098261      -25.1069214562       15.1605372731  MEMB      86              0.0000000000
      8970        86  POPE      C31           -25.5884286277      -25.0176108352       14.0602128818  MEMB      86              0.0000000000
      8971        86  POPE      O32           -25.4641116177      -25.5654568569       12.9804514619  MEMB      86              0.0000000000
      8972        86  POPE      C32           -26.7237046612      -24.1215094502       14.5092186520  MEMB      86              0.0000000000
      8973        86  POPE      H2X           -26.4504545554      -23.0598953487       14.6898587023  MEMB      86              0.0000000000
      8974        86  POPE      H2Y           -27.0828062771      -24.4585353358       15.5051007457  MEMB      86              0.0000000000
      8975        86  POPE      C23           -21.2291200682      -21.5808663345       15.6114612997  MEMB      86              0.0000000000
      8976        86  POPE      H3R           -20.6856378896      -20.6270358979       15.4407108072  MEMB      86              0.0000000000
      8977        86  POPE      H3S           -21.6096869799      -21.5970491760       16.6551221212  MEMB      86              0.0000000000
      8978        86  POPE      C24           -22.4054919945      -21.5563018881       14.6108186829  MEMB      86              0.0000000000
      8979        86  POPE      H4R           -23.2173010456      -20.8707625624       14.9353536257  MEMB      86              0.0000000000
      8980        86  POPE      H4S           -22.9462229793      -22.5243776751       14.5418236311  MEMB      86              0.0000000000
      8981        86  POPE      C25           -21.9605400963      -21.0528882998       13.1528612901  MEMB      86              0.0000000000
      8982        86  POPE      H5R           -21.1781740015      -21.7395195595       12.7645808388  MEMB      86              0.0000000000
      8983        86  POPE      H5S           -21.4995437500      -20.0846669007       13.4432940226  MEMB      86              0.0000000000
      8984        86  POPE      C26           -23.1972808126      -20.9247669202       12.2089123359  MEMB      86              0.0000000000
      8985        86  POPE      H6R           -22.8110901136      -20.3680215589       11.3284505630  MEMB      86              0.0000000000
      8986        86  POPE      H6S           -23.9308381507      -20.2904138019       12.7509554025  MEMB      86              0.0000000000
      8987        86  POPE      C27           -23.9897146986      -22.1321144611       11.7555471755  MEMB      86              0.0000000000
      8988        86  POPE      H7R           -24.8846823156      -21.6552878263       11.3016855053  MEMB      86              0.0000000000
      8989        86  POPE      H7S           -24.3110779581      -22.7646163633       12.6105254695  MEMB      86              0.0000000000
      8990        86  POPE      C28           -23.2681222125      -23.0444238976       10.8085986146  MEMB      86              0.0000000000
      8991        86  POPE      H8R           -24.0117392021      -23.8600736984       10.6818301149  MEMB      86              0.0000000000
      8992        86  POPE      H8S           -22.3875020916      -23.4200042282       11.3723077538  MEMB      86              0.0000000000
      8993        86  POPE      C29           -22.8156625542      -22.3457355541        9.5171219903  MEMB      86              0.0000000000
      8994        86  POPE      H91           -22.0770262791      -21.5364694554        9.6146159294  MEMB      86              0.0000000000
      8995        86  POPE      C210          -23.2314511878      -22.6487537050        8.2585552123  MEMB      86              0.0000000000
      8996        86  POPE      H101          -22.8131274382      -22.1161379998        7.3917638668  MEMB      86              0.0000000000
      8997        86  POPE      C211          -24.2182359232      -23.7236302404        7.8569274777  MEMB      86              0.0000000000
      8998        86  POPE      H11R          -24.6577721186      -24.1949574725        8.7619025056  MEMB      86              0.0000000000
      8999        86  POPE      H11S          -23.6315787450      -24.5636029616        7.4272754799  MEMB      86              0.0000000000
      9000        86  POPE      C212          -25.4569440576      -23.4323421138        6.9314146315  MEMB      86              0.0000000000
      9001        86  POPE      H12R          -25.9712752596      -22.4971387732        7.2399255451  MEMB      86              0.0000000000
      9002        86  POPE      H12S          -26.1913632552      -24.2659354714        6.9398799264  MEMB      86              0.0000000000
      9003        86  POPE      C213          -25.0570855132      -23.2182298005        5.4318418805  MEMB      86              0.0000000000
      9004        86  POPE      H13R          -24.4604862326      -22.2912474034        5.5700226033  MEMB      86              0.0000000000
      9005        86  POPE      H13S          -25.9737554591      -22.9394479375        4.8694211984  MEMB      86              0.0000000000
      9006        86  POPE      C214          -24.2984581384      -24.3649863908        4.7979614403  MEMB      86              0.0000000000
      9007        86  POPE      H14R          -24.8944283418      -25.3022764358        4.8230207295  MEMB      86              0.0000000000
      9008        86  POPE      H14S          -23.3216571730      -24.5822902119        5.2806216869  MEMB      86              0.0000000000
      9009        86  POPE      C215          -23.8858111289      -23.9420340508        3.3417058250  MEMB      86              0.0000000000
      9010        86  POPE      H15R          -24.7378357402      -23.9338175484        2.6287481825  MEMB      86              0.0000000000
      9011        86  POPE      H15S          -23.2456455433      -24.7799748160        2.9919009415  MEMB      86              0.0000000000
      9012        86  POPE      C216          -23.0671111398      -22.5556172451        3.3149020375  MEMB      86              0.0000000000
      9013        86  POPE      H16R          -22.2183062967      -22.7200734924        4.0126165526  MEMB      86              0.0000000000
      9014        86  POPE      H16S          -23.6900983614      -21.7400980302        3.7405033331  MEMB      86              0.0000000000
      9015        86  POPE      C217          -22.5076748517      -22.1105932837        1.9506244621  MEMB      86              0.0000000000
      9016        86  POPE      H17R          -23.3006824260      -21.9396849403        1.1915135082  MEMB      86              0.0000000000
      9017        86  POPE      H17S          -21.8214298014      -22.9130591888        1.6050274442  MEMB      86              0.0000000000
      9018        86  POPE      C218          -21.6022754532      -20.8580751435        2.0629614521  MEMB      86              0.0000000000
      9019        86  POPE      H18R          -20.7477131553      -21.1332048217        2.7174435494  MEMB      86              0.0000000000
      9020        86  POPE      H18S          -22.1426652924      -20.0227346250        2.5574360044  MEMB      86              0.0000000000
      9021        86  POPE      H18T          -21.2058400882      -20.4849010388        1.0945080096  MEMB      86              0.0000000000
      9022        86  POPE      C33           -27.9671871497      -24.3284826445       13.6233127485  MEMB      86              0.0000000000
      9023        86  POPE      H3X           -28.8081520628      -23.9099075707       14.2165191380  MEMB      86              0.0000000000
      9024        86  POPE      H3Y           -28.2139490017      -25.4051805636       13.5043531103  MEMB      86              0.0000000000
      9025        86  POPE      C34           -27.8474015128      -23.7058383966       12.1898272755  MEMB      86              0.0000000000
      9026        86  POPE      H4X           -27.1357387855      -24.3605527598       11.6428296008  MEMB      86              0.0000000000
      9027        86  POPE      H4Y           -27.3730069705      -22.7020592065       12.2310338408  MEMB      86              0.0000000000
      9028        86  POPE      C35           -29.1079927257      -23.6285565948       11.4362694451  MEMB      86              0.0000000000
      9029        86  POPE      H5X           -29.7116052541      -22.7853616408       11.8350112760  MEMB      86              0.0000000000
      9030        86  POPE      H5Y           -29.6410134476      -24.5742322214       11.6727181758  MEMB      86              0.0000000000
      9031        86  POPE      C36           -28.8650352657      -23.4897046028        9.9386984791  MEMB      86              0.0000000000
      9032        86  POPE      H6X           -29.8788191836      -23.4766969063        9.4843929059  MEMB      86              0.0000000000
      9033        86  POPE      H6Y           -28.2727774856      -24.3269959018        9.5115042013  MEMB      86              0.0000000000
      9034        86  POPE      C37           -28.2204808716      -22.1932239743        9.4290154333  MEMB      86              0.0000000000
      9035        86  POPE      H7X           -27.1854051705      -22.3994603313        9.0820201648  MEMB      86              0.0000000000
      9036        86  POPE      H7Y           -28.1477013648      -21.4791277927       10.2770079848  MEMB      86              0.0000000000
      9037        86  POPE      C38           -29.0555591589      -21.4627556337        8.4515872115  MEMB      86              0.0000000000
      9038        86  POPE      H8X           -30.0537330917      -21.2805956521        8.9041218460  MEMB      86              0.0000000000
      9039        86  POPE      H8Y           -29.3097025145      -22.0638441151        7.5524631172  MEMB      86              0.0000000000
      9040        86  POPE      C39           -28.5142808960      -20.2259035444        7.7539075941  MEMB      86              0.0000000000
      9041        86  POPE      H9X           -27.4852891211      -20.4456387660        7.3972378826  MEMB      86              0.0000000000
      9042        86  POPE      H9Y           -28.2415086826      -19.4648599744        8.5159635694  MEMB      86              0.0000000000
      9043        86  POPE      C310          -29.3769618675      -19.6526496629        6.5175385690  MEMB      86              0.0000000000
      9044        86  POPE      H10X          -29.0062387406      -18.6327822643        6.2793032468  MEMB      86              0.0000000000
      9045        86  POPE      H10Y          -30.4447549052      -19.5056836493        6.7868708028  MEMB      86              0.0000000000
      9046        86  POPE      C311          -29.3489290385      -20.5099062208        5.2587318392  MEMB      86              0.0000000000
      9047        86  POPE      H11X          -30.1770565651      -20.1896696224        4.5909188410  MEMB      86              0.0000000000
      9048        86  POPE      H11Y          -29.4532534760      -21.5834668319        5.5250116295  MEMB      86              0.0000000000
      9049        86  POPE      C312          -28.0609317983      -20.3208047578        4.5328980605  MEMB      86              0.0000000000
      9050        86  POPE      H12X          -27.2098790777      -20.7316807164        5.1170297270  MEMB      86              0.0000000000
      9051        86  POPE      H12Y          -27.8798596543      -19.2303111200        4.4217325484  MEMB      86              0.0000000000
      9052        86  POPE      C313          -28.1562423720      -21.0269252917        3.1803013298  MEMB      86              0.0000000000
      9053        86  POPE      H13X          -28.8302078127      -20.4374240970        2.5225936313  MEMB      86              0.0000000000
      9054        86  POPE      H13Y          -28.5763482481      -22.0431312109        3.3389128732  MEMB      86              0.0000000000
      9055        86  POPE      C314          -26.7633319676      -21.2790974313        2.4711242064  MEMB      86              0.0000000000
      9056        86  POPE      H14X          -26.9892523141      -21.8822398954        1.5658617372  MEMB      86              0.0000000000
      9057        86  POPE      H14Y          -26.1996245070      -22.0436444972        3.0473382991  MEMB      86              0.0000000000
      9058        86  POPE      C315          -25.9884395362      -19.9938131663        2.0972540450  MEMB      86              0.0000000000
      9059        86  POPE      H15X          -25.0483962812      -20.3353746074        1.6135444613  MEMB      86              0.0000000000
      9060        86  POPE      H15Y          -25.6877279874      -19.5965365393        3.0902632803  MEMB      86              0.0000000000
      9061        86  POPE      C316          -26.5921428593      -18.8776213217        1.3611126846  MEMB      86              0.0000000000
      9062        86  POPE      H16X          -27.4671022803      -18.4328116703        1.8816042058  MEMB      86              0.0000000000
      9063        86  POPE      H16Y          -26.8007445126      -19.2062446375        0.3205290848  MEMB      86              0.0000000000
      9064        86  POPE      H16Z          -25.9099343810      -18.0090684409        1.4816447444  MEMB      86              0.0000000000
      9065        87  POPC      N              12.3074428765       31.9554337111       20.6265622638  MEMB      87              0.0000000000
      9066        87  POPC      C12            12.8902027325       31.0867515292       19.4753392827  MEMB      87              0.0000000000
      9067        87  POPC      H12A           12.8201479426       30.0698223342       19.8321969903  MEMB      87              0.0000000000
      9068        87  POPC      H12B           13.9046899023       31.4174726824       19.3084880926  MEMB      87              0.0000000000
      9069        87  POPC      C13            10.9841718270       31.4426268138       21.2204737353  MEMB      87              0.0000000000
      9070        87  POPC      H13A           10.9499233265       31.7702614429       22.2490077056  MEMB      87              0.0000000000
      9071        87  POPC      H13B           10.0657465395       31.7726266242       20.7578776800  MEMB      87              0.0000000000
      9072        87  POPC      H13C           11.0433581010       30.3680261507       21.3106422409  MEMB      87              0.0000000000
      9073        87  POPC      C14            13.4010280474       31.9788643548       21.6611272302  MEMB      87              0.0000000000
      9074        87  POPC      H14A           13.6030162856       30.9622999963       21.9647680179  MEMB      87              0.0000000000
      9075        87  POPC      H14B           14.3108230007       32.3627548648       21.2237474119  MEMB      87              0.0000000000
      9076        87  POPC      H14C           13.1212592702       32.5218745041       22.5517840158  MEMB      87              0.0000000000
      9077        87  POPC      C15            12.1740533114       33.3646313066       20.1371034197  MEMB      87              0.0000000000
      9078        87  POPC      H15A           13.0673913989       33.6463195767       19.5995174278  MEMB      87              0.0000000000
      9079        87  POPC      H15B           11.9552607913       34.0782950009       20.9176250213  MEMB      87              0.0000000000
      9080        87  POPC      H15C           11.3907523013       33.4808278159       19.4027071202  MEMB      87              0.0000000000
      9081        87  POPC      C11            12.0857654459       31.1510101995       18.1007824097  MEMB      87              0.0000000000
      9082        87  POPC      H11A           12.4547799263       30.4833453681       17.2930863289  MEMB      87              0.0000000000
      9083        87  POPC      H11B           12.2316679720       32.1410371882       17.6182058082  MEMB      87              0.0000000000
      9084        87  POPC      P               9.4761988688       31.7697035734       17.5873475862  MEMB      87              0.0000000000
      9085        87  POPC      O13             9.4101311966       33.1005218526       18.2623911070  MEMB      87              0.0000000000
      9086        87  POPC      O14             8.2125545953       30.9127175028       17.5504765689  MEMB      87              0.0000000000
      9087        87  POPC      O12            10.6927048241       30.9003252505       18.2500283030  MEMB      87              0.0000000000
      9088        87  POPC      O11            10.0521231291       31.9801864340       16.1283680890  MEMB      87              0.0000000000
      9089        87  POPC      C1              9.3150638502       32.6882815436       15.1622921855  MEMB      87              0.0000000000
      9090        87  POPC      HA              9.5827835961       33.7455303215       15.3741227840  MEMB      87              0.0000000000
      9091        87  POPC      HB              8.2173895188       32.5475302092       15.2603796578  MEMB      87              0.0000000000
      9092        87  POPC      C2              9.7782073274       32.1603911636       13.7563565332  MEMB      87              0.0000000000
      9093        87  POPC      HS              9.1413809822       32.6901818422       13.0160219579  MEMB      87              0.0000000000
      9094        87  POPC      O21             9.5661702403       30.7482820236       13.7078958010  MEMB      87              0.0000000000
      9095        87  POPC      C21             8.3144979695       30.2734834645       13.6841433977  MEMB      87              0.0000000000
      9096        87  POPC      O22             7.3266799381       30.9418920688       13.6752755005  MEMB      87              0.0000000000
      9097        87  POPC      C22             8.2696377287       28.7439700583       13.8504084119  MEMB      87              0.0000000000
      9098        87  POPC      H2R             7.2109538374       28.4204577466       13.7563396681  MEMB      87              0.0000000000
      9099        87  POPC      H2S             8.5866480595       28.3810804128       14.8514762657  MEMB      87              0.0000000000
      9100        87  POPC      C3             11.3114218786       32.5411268543       13.4101386321  MEMB      87              0.0000000000
      9101        87  POPC      HX             11.8675010661       32.0907662502       14.2600043648  MEMB      87              0.0000000000
      9102        87  POPC      HY             11.4885912427       33.6378870502       13.4171384146  MEMB      87              0.0000000000
      9103        87  POPC      O31            11.9042427778       31.9321759973       12.2223295150  MEMB      87              0.0000000000
      9104        87  POPC      C31            11.5379854380       32.3925802044       11.0615385878  MEMB      87              0.0000000000
      9105        87  POPC      O32            10.7563230490       33.3218300964       10.8485255212  MEMB      87              0.0000000000
      9106        87  POPC      C32            12.2426175198       31.6651808457        9.8795359267  MEMB      87              0.0000000000
      9107        87  POPC      H2X            11.4003619991       31.0946207554        9.4330068935  MEMB      87              0.0000000000
      9108        87  POPC      H2Y            12.9716958914       30.8944381052       10.2092653582  MEMB      87              0.0000000000
      9109        87  POPC      C23             9.0481030392       27.9171489882       12.7922970204  MEMB      87              0.0000000000
      9110        87  POPC      H3R             8.9032601127       26.8400489341       13.0229402955  MEMB      87              0.0000000000
      9111        87  POPC      H3S            10.1029780883       28.1729273933       13.0292301608  MEMB      87              0.0000000000
      9112        87  POPC      C24             8.6818286795       28.0575746104       11.3093901207  MEMB      87              0.0000000000
      9113        87  POPC      H4R             7.6473750208       27.6548886087       11.2638785302  MEMB      87              0.0000000000
      9114        87  POPC      H4S             9.4443295927       27.4838884355       10.7403577854  MEMB      87              0.0000000000
      9115        87  POPC      C25             8.6745666184       29.4631141932       10.6929280719  MEMB      87              0.0000000000
      9116        87  POPC      H5R             9.5896327077       30.0670326458       10.8725318005  MEMB      87              0.0000000000
      9117        87  POPC      H5S             7.7915221298       29.9460324524       11.1633992977  MEMB      87              0.0000000000
      9118        87  POPC      C26             8.1647318930       29.4773011049        9.2279951701  MEMB      87              0.0000000000
      9119        87  POPC      H6R             7.3049375453       28.7761503630        9.1691563650  MEMB      87              0.0000000000
      9120        87  POPC      H6S             8.9571176839       29.0859303686        8.5547383774  MEMB      87              0.0000000000
      9121        87  POPC      C27             7.5984468573       30.8550799975        8.7284642983  MEMB      87              0.0000000000
      9122        87  POPC      H7R             6.6036102877       31.0239785093        9.1933230067  MEMB      87              0.0000000000
      9123        87  POPC      H7S             7.3868060942       30.7540910117        7.6424939693  MEMB      87              0.0000000000
      9124        87  POPC      C28             8.3064377828       32.1859873892        9.0732548463  MEMB      87              0.0000000000
      9125        87  POPC      H8R             9.2998728555       32.1531434382        8.5769402248  MEMB      87              0.0000000000
      9126        87  POPC      H8S             8.2949232429       32.2822184478       10.1800196835  MEMB      87              0.0000000000
      9127        87  POPC      C29             7.3879769630       33.3149687451        8.5941169150  MEMB      87              0.0000000000
      9128        87  POPC      H91             6.3708963091       33.3480108523        9.0117959103  MEMB      87              0.0000000000
      9129        87  POPC      C210            7.7856099646       34.2429288418        7.7461376347  MEMB      87              0.0000000000
      9130        87  POPC      H101            7.1015753982       35.0745545998        7.5214269381  MEMB      87              0.0000000000
      9131        87  POPC      C211            9.1235806661       34.4602666116        6.9944541400  MEMB      87              0.0000000000
      9132        87  POPC      H11R            9.9478499018       34.0982910065        7.6455112316  MEMB      87              0.0000000000
      9133        87  POPC      H11S            9.3084067937       35.5542624957        6.9367184266  MEMB      87              0.0000000000
      9134        87  POPC      C212            9.1651339590       33.8086034398        5.6009043875  MEMB      87              0.0000000000
      9135        87  POPC      H12R           10.1302411714       34.0247229510        5.0947613092  MEMB      87              0.0000000000
      9136        87  POPC      H12S            8.3390444721       34.2221414604        4.9837470117  MEMB      87              0.0000000000
      9137        87  POPC      C213            9.1064435154       32.2299556368        5.5337822899  MEMB      87              0.0000000000
      9138        87  POPC      H13R            8.1661656667       31.8489808451        5.9866143074  MEMB      87              0.0000000000
      9139        87  POPC      H13S            9.9084465670       31.7545631471        6.1380284571  MEMB      87              0.0000000000
      9140        87  POPC      C214            9.0940662518       31.7109137301        4.0440551635  MEMB      87              0.0000000000
      9141        87  POPC      H14R            9.9672139644       32.1463525970        3.5127106519  MEMB      87              0.0000000000
      9142        87  POPC      H14S            8.1328637056       32.0796115141        3.6263557866  MEMB      87              0.0000000000
      9143        87  POPC      C215            9.2662538456       30.1788704821        3.9734006441  MEMB      87              0.0000000000
      9144        87  POPC      H15R            8.4217199856       29.7695947773        4.5680239630  MEMB      87              0.0000000000
      9145        87  POPC      H15S           10.2197235927       29.8891809947        4.4646200172  MEMB      87              0.0000000000
      9146        87  POPC      C216            9.2008078125       29.5973067289        2.6077923752  MEMB      87              0.0000000000
      9147        87  POPC      H16R            9.9080468301       30.1595000902        1.9612078561  MEMB      87              0.0000000000
      9148        87  POPC      H16S            8.2405366090       29.8756498674        2.1233090382  MEMB      87              0.0000000000
      9149        87  POPC      C217            9.2246215235       28.0298746521        2.5263426513  MEMB      87              0.0000000000
      9150        87  POPC      H17R            8.5871608257       27.7271731784        3.3844435243  MEMB      87              0.0000000000
      9151        87  POPC      H17S           10.2536317886       27.7137797219        2.8011937915  MEMB      87              0.0000000000
      9152        87  POPC      C218            8.6821963285       27.4150144260        1.2072254810  MEMB      87              0.0000000000
      9153        87  POPC      H18R            7.6194382221       27.7318328651        1.1401995085  MEMB      87              0.0000000000
      9154        87  POPC      H18S            8.7575692949       26.3083818169        1.1439414789  MEMB      87              0.0000000000
      9155        87  POPC      H18T            9.3074799144       27.6802192539        0.3280163719  MEMB      87              0.0000000000
      9156        87  POPC      C33            12.8602214980       32.5581708963        8.7588689354  MEMB      87              0.0000000000
      9157        87  POPC      H3X            13.8401806271       32.9422133006        9.1145546715  MEMB      87              0.0000000000
      9158        87  POPC      H3Y            12.2574109236       33.4851822132        8.6512104981  MEMB      87              0.0000000000
      9159        87  POPC      C34            12.9597382898       31.9030469386        7.3880439356  MEMB      87              0.0000000000
      9160        87  POPC      H4X            11.9547570880       31.5465455868        7.0762092153  MEMB      87              0.0000000000
      9161        87  POPC      H4Y            13.6187671551       31.0121642762        7.4676066095  MEMB      87              0.0000000000
      9162        87  POPC      C35            13.4288268955       32.9065018758        6.4153282904  MEMB      87              0.0000000000
      9163        87  POPC      H5X            14.4961305345       33.1103452061        6.6469135296  MEMB      87              0.0000000000
      9164        87  POPC      H5Y            12.8389805449       33.8479787174        6.4104764603  MEMB      87              0.0000000000
      9165        87  POPC      C36            13.3890660535       32.3549888570        5.0216894529  MEMB      87              0.0000000000
      9166        87  POPC      H6X            13.8353607624       33.1665486063        4.4080834718  MEMB      87              0.0000000000
      9167        87  POPC      H6Y            12.3333177577       32.2071960351        4.7088420676  MEMB      87              0.0000000000
      9168        87  POPC      C37            14.2082143739       31.0856121547        4.7883605325  MEMB      87              0.0000000000
      9169        87  POPC      H7X            13.5997893318       30.2225684397        5.1337525126  MEMB      87              0.0000000000
      9170        87  POPC      H7Y            15.1791846537       31.2954294731        5.2858690029  MEMB      87              0.0000000000
      9171        87  POPC      C38            14.5109699616       30.8691418493        3.2398372063  MEMB      87              0.0000000000
      9172        87  POPC      H8X            14.9944380839       29.8688560163        3.2370745870  MEMB      87              0.0000000000
      9173        87  POPC      H8Y            15.1756089437       31.7095082448        2.9459657623  MEMB      87              0.0000000000
      9174        87  POPC      C39            13.3444698835       30.8370166245        2.2691160110  MEMB      87              0.0000000000
      9175        87  POPC      H9X            12.6224912801       30.1863665605        2.8073742224  MEMB      87              0.0000000000
      9176        87  POPC      H9Y            13.7112870115       30.2930985774        1.3725015471  MEMB      87              0.0000000000
      9177        87  POPC      C310           12.6457607411       32.0733189566        1.7582546407  MEMB      87              0.0000000000
      9178        87  POPC      H10X           13.4027554398       32.8856848899        1.7948798443  MEMB      87              0.0000000000
      9179        87  POPC      H10Y           11.9192638403       32.4336093428        2.5176710338  MEMB      87              0.0000000000
      9180        87  POPC      C311           11.9456052574       31.9472365020        0.4220910978  MEMB      87              0.0000000000
      9181        87  POPC      H11X           11.3784137402       32.8904473383        0.2705388780  MEMB      87              0.0000000000
      9182        87  POPC      H11Y           11.2155020217       31.1110101949        0.3774151696  MEMB      87              0.0000000000
      9183        87  POPC      C312           12.9700030616       31.8393722701       -0.7905519912  MEMB      87              0.0000000000
      9184        87  POPC      H12X           13.2917781417       30.7871688866       -0.6367670580  MEMB      87              0.0000000000
      9185        87  POPC      H12Y           13.7753961206       32.6043666553       -0.7694216046  MEMB      87              0.0000000000
      9186        87  POPC      C313           12.2615298345       31.9801968845       -2.1965203072  MEMB      87              0.0000000000
      9187        87  POPC      H13X           11.5928086498       31.0930636478       -2.1852305045  MEMB      87              0.0000000000
      9188        87  POPC      H13Y           12.9750588567       31.6858442890       -2.9956150745  MEMB      87              0.0000000000
      9189        87  POPC      C314           11.5358774211       33.1891426491       -2.5682718803  MEMB      87              0.0000000000
      9190        87  POPC      H14X           10.6166433516       33.2209884612       -1.9451233575  MEMB      87              0.0000000000
      9191        87  POPC      H14Y           11.0590633338       33.1319477251       -3.5701193817  MEMB      87              0.0000000000
      9192        87  POPC      C315           12.3527957616       34.4880298623       -2.3178232026  MEMB      87              0.0000000000
      9193        87  POPC      H15X           13.4042873726       34.2722143562       -2.6043727402  MEMB      87              0.0000000000
      9194        87  POPC      H15Y           12.3962374024       34.6839645462       -1.2250995534  MEMB      87              0.0000000000
      9195        87  POPC      C316           11.7647343292       35.6886216055       -2.9925862534  MEMB      87              0.0000000000
      9196        87  POPC      H16X           10.6850140298       35.4389866661       -2.9137988160  MEMB      87              0.0000000000
      9197        87  POPC      H16Y           12.0736092510       35.7503176952       -4.0580021221  MEMB      87              0.0000000000
      9198        87  POPC      H16Z           12.0840554104       36.6573057038       -2.5521244059  MEMB      87              0.0000000000
      9199        88  POPE      N             -46.2093043854       16.0214517066       22.2538983630  MEMB      88              0.0000000000
      9200        88  POPE      HN1           -45.2875819773       16.2175600837       22.6938636731  MEMB      88              0.0000000000
      9201        88  POPE      HN2           -46.8703095116       16.8212323429       22.3247724620  MEMB      88              0.0000000000
      9202        88  POPE      HN3           -46.7164359328       15.2186087218       22.6779982422  MEMB      88              0.0000000000
      9203        88  POPE      C12           -45.9872729565       15.6905496086       20.8654372519  MEMB      88              0.0000000000
      9204        88  POPE      H12A          -47.0077796918       15.4771790026       20.4815622627  MEMB      88              0.0000000000
      9205        88  POPE      H12B          -45.3072536983       14.8127862638       20.8276704551  MEMB      88              0.0000000000
      9206        88  POPE      C11           -45.3735312902       16.7850128960       20.0180210558  MEMB      88              0.0000000000
      9207        88  POPE      H11A          -44.3850160712       17.0182079685       20.4683305076  MEMB      88              0.0000000000
      9208        88  POPE      H11B          -45.8370333985       17.7752595647       20.2152475361  MEMB      88              0.0000000000
      9209        88  POPE      P             -46.4688958332       16.8492704271       17.7206163150  MEMB      88              0.0000000000
      9210        88  POPE      O13           -47.7792681989       16.3782243012       18.2776777647  MEMB      88              0.0000000000
      9211        88  POPE      O14           -46.1624628991       16.5567736468       16.3681337731  MEMB      88              0.0000000000
      9212        88  POPE      O11           -46.3826619669       18.4121634585       17.8373998819  MEMB      88              0.0000000000
      9213        88  POPE      O12           -45.2999088682       16.4032699590       18.6588155945  MEMB      88              0.0000000000
      9214        88  POPE      C1            -45.4023188148       19.2537513316       17.2681640141  MEMB      88              0.0000000000
      9215        88  POPE      HA            -44.6911384376       18.6365892890       16.6785416953  MEMB      88              0.0000000000
      9216        88  POPE      HB            -44.9016185190       19.8869153122       18.0315273264  MEMB      88              0.0000000000
      9217        88  POPE      C2            -46.0911580712       20.2043019782       16.3337045310  MEMB      88              0.0000000000
      9218        88  POPE      HS            -46.7424467653       20.9639905578       16.8164230196  MEMB      88              0.0000000000
      9219        88  POPE      O21           -46.8818374071       19.5945709069       15.2895362002  MEMB      88              0.0000000000
      9220        88  POPE      C21           -48.1066751300       20.1518103472       15.0720141940  MEMB      88              0.0000000000
      9221        88  POPE      O22           -48.5413006870       21.1742353012       15.5764767311  MEMB      88              0.0000000000
      9222        88  POPE      C22           -48.9161242950       19.4270988932       14.0192679525  MEMB      88              0.0000000000
      9223        88  POPE      H2R           -49.0336380486       20.1049890619       13.1469284970  MEMB      88              0.0000000000
      9224        88  POPE      H2S           -49.9486955885       19.2269686728       14.3771310725  MEMB      88              0.0000000000
      9225        88  POPE      C3            -44.9952566320       21.0483406841       15.6057229707  MEMB      88              0.0000000000
      9226        88  POPE      HX            -44.5327541119       21.7023204091       16.3756079653  MEMB      88              0.0000000000
      9227        88  POPE      HY            -45.3457135978       21.7927295507       14.8591401807  MEMB      88              0.0000000000
      9228        88  POPE      O31           -44.0196982728       20.1859339596       14.9808192053  MEMB      88              0.0000000000
      9229        88  POPE      C31           -44.3044854624       19.8647225224       13.6953050368  MEMB      88              0.0000000000
      9230        88  POPE      O32           -45.0734378259       20.3460715371       12.9224408355  MEMB      88              0.0000000000
      9231        88  POPE      C32           -43.2953201588       18.8425540006       13.2206197795  MEMB      88              0.0000000000
      9232        88  POPE      H2X           -42.2475938741       19.0725860426       13.5098874734  MEMB      88              0.0000000000
      9233        88  POPE      H2Y           -43.3353653112       18.7821688780       12.1119852923  MEMB      88              0.0000000000
      9234        88  POPE      C23           -48.2469550005       18.0273219891       13.6809724826  MEMB      88              0.0000000000
      9235        88  POPE      H3R           -48.1060441549       17.4509853166       14.6202813034  MEMB      88              0.0000000000
      9236        88  POPE      H3S           -47.2513419855       18.1321176176       13.1992109769  MEMB      88              0.0000000000
      9237        88  POPE      C24           -49.0973608355       17.2689864299       12.7490926453  MEMB      88              0.0000000000
      9238        88  POPE      H4R           -49.4156889821       17.8763636858       11.8749750861  MEMB      88              0.0000000000
      9239        88  POPE      H4S           -49.9705184332       16.9006744563       13.3289744397  MEMB      88              0.0000000000
      9240        88  POPE      C25           -48.4172699856       15.9994054633       12.2327299837  MEMB      88              0.0000000000
      9241        88  POPE      H5R           -48.1988655035       15.3102931067       13.0763795550  MEMB      88              0.0000000000
      9242        88  POPE      H5S           -47.4780536547       16.2630461717       11.7010471610  MEMB      88              0.0000000000
      9243        88  POPE      C26           -49.2863841884       15.2112280258       11.3006589510  MEMB      88              0.0000000000
      9244        88  POPE      H6R           -49.5729347424       15.8147954225       10.4130123672  MEMB      88              0.0000000000
      9245        88  POPE      H6S           -50.2634226653       15.0621631117       11.8080997506  MEMB      88              0.0000000000
      9246        88  POPE      C27           -48.7836330671       13.8744360435       10.8654983204  MEMB      88              0.0000000000
      9247        88  POPE      H7R           -49.5434825748       13.5702810705       10.1142061359  MEMB      88              0.0000000000
      9248        88  POPE      H7S           -48.7976211699       13.0412921673       11.6003429792  MEMB      88              0.0000000000
      9249        88  POPE      C28           -47.4554329466       13.9038588229       10.1557855271  MEMB      88              0.0000000000
      9250        88  POPE      H8R           -47.1985897018       12.8518366006        9.9075882785  MEMB      88              0.0000000000
      9251        88  POPE      H8S           -46.6108083038       14.2424113860       10.7932120744  MEMB      88              0.0000000000
      9252        88  POPE      C29           -47.3571244501       14.8876728591        8.9774747527  MEMB      88              0.0000000000
      9253        88  POPE      H91           -47.6440171008       15.9393417830        9.1247325970  MEMB      88              0.0000000000
      9254        88  POPE      C210          -46.9571563758       14.6693180647        7.7110661607  MEMB      88              0.0000000000
      9255        88  POPE      H101          -47.0990045441       15.4112256949        6.9114083454  MEMB      88              0.0000000000
      9256        88  POPE      C211          -46.5069591751       13.3342073044        7.2011915573  MEMB      88              0.0000000000
      9257        88  POPE      H11R          -47.0870566012       12.9916768498        6.3177433808  MEMB      88              0.0000000000
      9258        88  POPE      H11S          -46.5978722209       12.5422294624        7.9750304473  MEMB      88              0.0000000000
      9259        88  POPE      C212          -45.0526149829       13.2516053210        6.5703381141  MEMB      88              0.0000000000
      9260        88  POPE      H12R          -45.0005112084       12.2069884272        6.1956625584  MEMB      88              0.0000000000
      9261        88  POPE      H12S          -44.3286993212       13.4642741063        7.3858374859  MEMB      88              0.0000000000
      9262        88  POPE      C213          -44.8553029556       14.3293911145        5.5026572917  MEMB      88              0.0000000000
      9263        88  POPE      H13R          -43.8135086333       14.3207735384        5.1167665119  MEMB      88              0.0000000000
      9264        88  POPE      H13S          -44.9826167380       15.3724072836        5.8635303790  MEMB      88              0.0000000000
      9265        88  POPE      C214          -45.7175506083       14.0493949071        4.3619869609  MEMB      88              0.0000000000
      9266        88  POPE      H14R          -46.8131764888       14.1208995248        4.5317280230  MEMB      88              0.0000000000
      9267        88  POPE      H14S          -45.5123113098       13.0086102952        4.0318881028  MEMB      88              0.0000000000
      9268        88  POPE      C215          -45.5613923127       15.0051265468        3.1622183900  MEMB      88              0.0000000000
      9269        88  POPE      H15R          -44.5134620881       15.2588669052        2.8943025434  MEMB      88              0.0000000000
      9270        88  POPE      H15S          -45.9916349926       15.9911386545        3.4396927497  MEMB      88              0.0000000000
      9271        88  POPE      C216          -46.1701442816       14.3461566912        1.8835179765  MEMB      88              0.0000000000
      9272        88  POPE      H16R          -47.2730416406       14.4708101498        1.8345271214  MEMB      88              0.0000000000
      9273        88  POPE      H16S          -45.8951859621       13.2697252068        1.8873010968  MEMB      88              0.0000000000
      9274        88  POPE      C217          -45.6857965943       14.9185587027        0.5172442632  MEMB      88              0.0000000000
      9275        88  POPE      H17R          -45.9796002778       14.3562859489       -0.3948133804  MEMB      88              0.0000000000
      9276        88  POPE      H17S          -44.5748784389       14.9257590261        0.5058682808  MEMB      88              0.0000000000
      9277        88  POPE      C218          -46.0895101512       16.3411578011        0.1994097070  MEMB      88              0.0000000000
      9278        88  POPE      H18R          -45.4556968762       16.7243295018       -0.6287087602  MEMB      88              0.0000000000
      9279        88  POPE      H18S          -46.1375447268       17.1228441741        0.9874329321  MEMB      88              0.0000000000
      9280        88  POPE      H18T          -47.1352012936       16.2754269172       -0.1700908391  MEMB      88              0.0000000000
      9281        88  POPE      C33           -43.6907481354       17.4772308484       13.7218293021  MEMB      88              0.0000000000
      9282        88  POPE      H3X           -44.7046501425       17.2752684248       13.3149692702  MEMB      88              0.0000000000
      9283        88  POPE      H3Y           -43.7987844177       17.4643035424       14.8274882526  MEMB      88              0.0000000000
      9284        88  POPE      C34           -42.8302620651       16.2513897822       13.4055415994  MEMB      88              0.0000000000
      9285        88  POPE      H4X           -43.3112074837       15.3838244779       13.9058848109  MEMB      88              0.0000000000
      9286        88  POPE      H4Y           -41.8569074194       16.3407547472       13.9336660971  MEMB      88              0.0000000000
      9287        88  POPE      C35           -42.5884273428       15.8593531379       11.9736098258  MEMB      88              0.0000000000
      9288        88  POPE      H5X           -42.4175343627       14.7615770326       11.9715375874  MEMB      88              0.0000000000
      9289        88  POPE      H5Y           -41.6956395070       16.3884417782       11.5769793424  MEMB      88              0.0000000000
      9290        88  POPE      C36           -43.7223677839       16.1320647284       11.0253193187  MEMB      88              0.0000000000
      9291        88  POPE      H6X           -44.0255704793       17.1560075262       10.7188385629  MEMB      88              0.0000000000
      9292        88  POPE      H6Y           -44.6151346724       15.6828490323       11.5105955759  MEMB      88              0.0000000000
      9293        88  POPE      C37           -43.5309233979       15.3292108777        9.6523435137  MEMB      88              0.0000000000
      9294        88  POPE      H7X           -44.4646613844       15.3668125346        9.0514770053  MEMB      88              0.0000000000
      9295        88  POPE      H7Y           -43.2233475751       14.2793063524        9.8457819139  MEMB      88              0.0000000000
      9296        88  POPE      C38           -42.5523901706       16.0581884766        8.6937200026  MEMB      88              0.0000000000
      9297        88  POPE      H8X           -42.3591553480       15.4337240046        7.7953740253  MEMB      88              0.0000000000
      9298        88  POPE      H8Y           -41.5955304167       16.1463702548        9.2513618638  MEMB      88              0.0000000000
      9299        88  POPE      C39           -42.9973035023       17.4757188151        8.2778612594  MEMB      88              0.0000000000
      9300        88  POPE      H9X           -42.3007901566       17.6819663821        7.4372361800  MEMB      88              0.0000000000
      9301        88  POPE      H9Y           -42.7933400463       18.1818691116        9.1109711334  MEMB      88              0.0000000000
      9302        88  POPE      C310          -44.4565677158       17.6507368396        7.7451105344  MEMB      88              0.0000000000
      9303        88  POPE      H10X          -45.2337191979       17.6111801432        8.5380736651  MEMB      88              0.0000000000
      9304        88  POPE      H10Y          -44.6706344986       16.7908512978        7.0749658945  MEMB      88              0.0000000000
      9305        88  POPE      C311          -44.5670581038       19.0245125059        7.1574931690  MEMB      88              0.0000000000
      9306        88  POPE      H11X          -44.3115527421       19.8570797212        7.8473265154  MEMB      88              0.0000000000
      9307        88  POPE      H11Y          -45.6308078424       19.1110394807        6.8488339417  MEMB      88              0.0000000000
      9308        88  POPE      C312          -43.6868409833       19.3801530679        5.9708602264  MEMB      88              0.0000000000
      9309        88  POPE      H12X          -42.6628818041       19.5277450817        6.3758851036  MEMB      88              0.0000000000
      9310        88  POPE      H12Y          -44.1369027177       20.3532859794        5.6796946850  MEMB      88              0.0000000000
      9311        88  POPE      C313          -43.8499428713       18.3821518953        4.8563119701  MEMB      88              0.0000000000
      9312        88  POPE      H13X          -44.9415136155       18.4187256555        4.6527025148  MEMB      88              0.0000000000
      9313        88  POPE      H13Y          -43.4465761830       17.3936638443        5.1637328405  MEMB      88              0.0000000000
      9314        88  POPE      C314          -43.2234693176       18.8672151702        3.5257308932  MEMB      88              0.0000000000
      9315        88  POPE      H14X          -42.2059715692       19.2638011829        3.7300315695  MEMB      88              0.0000000000
      9316        88  POPE      H14Y          -43.7950144480       19.7749326488        3.2364107191  MEMB      88              0.0000000000
      9317        88  POPE      C315          -43.1715347084       17.8768428776        2.3971573429  MEMB      88              0.0000000000
      9318        88  POPE      H15X          -44.1929930716       17.4981165837        2.1791887064  MEMB      88              0.0000000000
      9319        88  POPE      H15Y          -42.3931351059       17.2103747968        2.8263835880  MEMB      88              0.0000000000
      9320        88  POPE      C316          -42.6726863787       18.3532660826        1.0304422618  MEMB      88              0.0000000000
      9321        88  POPE      H16X          -43.5921920888       18.7418968011        0.5427990852  MEMB      88              0.0000000000
      9322        88  POPE      H16Y          -42.2047008845       17.6233860998        0.3357587431  MEMB      88              0.0000000000
      9323        88  POPE      H16Z          -42.0258186634       19.2436426161        1.1824713935  MEMB      88              0.0000000000
      9324        89  POPE      N             -30.9051577586      -17.6809230881       21.8464373632  MEMB      89              0.0000000000
      9325        89  POPE      HN1           -31.8144527621      -17.5755467802       21.3527993045  MEMB      89              0.0000000000
      9326        89  POPE      HN2           -31.0531873496      -18.2134623428       22.7273964059  MEMB      89              0.0000000000
      9327        89  POPE      HN3           -30.5336026092      -16.7231630412       22.0084324201  MEMB      89              0.0000000000
      9328        89  POPE      C12           -30.1232355466      -18.6872517463       21.1119817012  MEMB      89              0.0000000000
      9329        89  POPE      H12A          -30.7601829218      -19.5732594016       20.9031535025  MEMB      89              0.0000000000
      9330        89  POPE      H12B          -29.3261364783      -19.0508458783       21.7951750402  MEMB      89              0.0000000000
      9331        89  POPE      C11           -29.5363383277      -18.0871891530       19.8369348783  MEMB      89              0.0000000000
      9332        89  POPE      H11A          -28.7898169488      -18.7728663854       19.3821013437  MEMB      89              0.0000000000
      9333        89  POPE      H11B          -28.9459148901      -17.1809237978       20.0907145547  MEMB      89              0.0000000000
      9334        89  POPE      P             -30.3387759544      -16.7136998496       17.8154826814  MEMB      89              0.0000000000
      9335        89  POPE      O13           -28.9060241069      -16.9520147916       17.5517875315  MEMB      89              0.0000000000
      9336        89  POPE      O14           -30.7037936018      -15.3230007293       18.2341691766  MEMB      89              0.0000000000
      9337        89  POPE      O11           -31.2394423436      -17.2635115150       16.6329775840  MEMB      89              0.0000000000
      9338        89  POPE      O12           -30.6168339572      -17.8093443157       18.9702291120  MEMB      89              0.0000000000
      9339        89  POPE      C1            -30.8375236324      -18.4828071536       15.9747456908  MEMB      89              0.0000000000
      9340        89  POPE      HA            -31.6142944176      -19.2543893074       16.1634495367  MEMB      89              0.0000000000
      9341        89  POPE      HB            -29.8378770022      -18.7871895157       16.3520770593  MEMB      89              0.0000000000
      9342        89  POPE      C2            -30.6523643020      -18.2124537830       14.4927821251  MEMB      89              0.0000000000
      9343        89  POPE      HS            -29.9619217558      -17.3435169416       14.4421975896  MEMB      89              0.0000000000
      9344        89  POPE      O21           -31.9564813678      -17.7275065233       14.0472994844  MEMB      89              0.0000000000
      9345        89  POPE      C21           -32.0398414653      -16.8915464784       12.9649723545  MEMB      89              0.0000000000
      9346        89  POPE      O22           -31.1593311677      -16.5209644955       12.2663767754  MEMB      89              0.0000000000
      9347        89  POPE      C22           -33.4878655224      -16.4947433999       12.8175703665  MEMB      89              0.0000000000
      9348        89  POPE      H2R           -33.6190877132      -15.4363748276       12.5061903549  MEMB      89              0.0000000000
      9349        89  POPE      H2S           -33.9206141358      -16.6704898846       13.8256195537  MEMB      89              0.0000000000
      9350        89  POPE      C3            -30.2713238170      -19.4714957381       13.7100140902  MEMB      89              0.0000000000
      9351        89  POPE      HX            -31.1531262191      -20.1461192310       13.6696550014  MEMB      89              0.0000000000
      9352        89  POPE      HY            -29.4976327711      -20.0972941935       14.2040784519  MEMB      89              0.0000000000
      9353        89  POPE      O31           -29.8056223770      -18.9813087307       12.4663100790  MEMB      89              0.0000000000
      9354        89  POPE      C31           -30.0717160722      -19.6890570174       11.3601574654  MEMB      89              0.0000000000
      9355        89  POPE      O32           -30.6750466971      -20.7479448790       11.3443513198  MEMB      89              0.0000000000
      9356        89  POPE      C32           -29.3078906201      -19.0451561949       10.2483211069  MEMB      89              0.0000000000
      9357        89  POPE      H2X           -28.5439471456      -18.2796317472       10.5026500157  MEMB      89              0.0000000000
      9358        89  POPE      H2Y           -30.0496075956      -18.6597477836        9.5164482255  MEMB      89              0.0000000000
      9359        89  POPE      C23           -34.3227787852      -17.2512010212       11.7251342172  MEMB      89              0.0000000000
      9360        89  POPE      H3R           -35.2745938882      -16.7348831236       11.4765695508  MEMB      89              0.0000000000
      9361        89  POPE      H3S           -34.6310514103      -18.2247982219       12.1626240985  MEMB      89              0.0000000000
      9362        89  POPE      C24           -33.5843889032      -17.4666847862       10.3950150999  MEMB      89              0.0000000000
      9363        89  POPE      H4R           -32.7211590042      -18.1449808147       10.5655139486  MEMB      89              0.0000000000
      9364        89  POPE      H4S           -33.1250680860      -16.5068410256       10.0755692113  MEMB      89              0.0000000000
      9365        89  POPE      C25           -34.4610944385      -18.0294517086        9.1945036385  MEMB      89              0.0000000000
      9366        89  POPE      H5R           -35.1867093794      -17.2094147381        9.0065054504  MEMB      89              0.0000000000
      9367        89  POPE      H5S           -34.9695900510      -18.9506602708        9.5510538158  MEMB      89              0.0000000000
      9368        89  POPE      C26           -33.7219390849      -18.3065040232        7.8615265918  MEMB      89              0.0000000000
      9369        89  POPE      H6R           -33.3402902455      -17.3217380408        7.5167065137  MEMB      89              0.0000000000
      9370        89  POPE      H6S           -34.3028341459      -18.7317760225        7.0153439280  MEMB      89              0.0000000000
      9371        89  POPE      C27           -32.5625870937      -19.3513304299        7.9023274231  MEMB      89              0.0000000000
      9372        89  POPE      H7R           -32.9618893183      -20.3320223039        8.2386639173  MEMB      89              0.0000000000
      9373        89  POPE      H7S           -31.8922888626      -18.9859249174        8.7094829500  MEMB      89              0.0000000000
      9374        89  POPE      C28           -31.6876214828      -19.3783179171        6.6154551836  MEMB      89              0.0000000000
      9375        89  POPE      H8R           -30.7946020861      -20.0127332737        6.8008054679  MEMB      89              0.0000000000
      9376        89  POPE      H8S           -31.1969917663      -18.3954698064        6.4492834398  MEMB      89              0.0000000000
      9377        89  POPE      C29           -32.4419694744      -19.8538682617        5.4092741802  MEMB      89              0.0000000000
      9378        89  POPE      H91           -33.0551405683      -19.0627259425        4.9530781387  MEMB      89              0.0000000000
      9379        89  POPE      C210          -32.2982576026      -21.0477399398        4.8098543559  MEMB      89              0.0000000000
      9380        89  POPE      H101          -32.8919669128      -21.4779796270        3.9898522896  MEMB      89              0.0000000000
      9381        89  POPE      C211          -31.4137777384      -22.1080543378        5.3154335767  MEMB      89              0.0000000000
      9382        89  POPE      H11R          -31.9018285268      -23.0611366071        5.6116795502  MEMB      89              0.0000000000
      9383        89  POPE      H11S          -31.0740725098      -21.8971361610        6.3519824506  MEMB      89              0.0000000000
      9384        89  POPE      C212          -30.1879804667      -22.5778325358        4.5071050467  MEMB      89              0.0000000000
      9385        89  POPE      H12R          -30.4125523596      -22.7325142026        3.4300903985  MEMB      89              0.0000000000
      9386        89  POPE      H12S          -29.7580092481      -23.5643531887        4.7831897951  MEMB      89              0.0000000000
      9387        89  POPE      C213          -28.9616093846      -21.5912648211        4.6901394486  MEMB      89              0.0000000000
      9388        89  POPE      H13R          -28.5504371888      -21.6182037128        5.7219019995  MEMB      89              0.0000000000
      9389        89  POPE      H13S          -29.4548043972      -20.6026259949        4.5732070289  MEMB      89              0.0000000000
      9390        89  POPE      C214          -27.9110314036      -21.9959084833        3.6793609895  MEMB      89              0.0000000000
      9391        89  POPE      H14R          -28.2934893760      -21.9004950419        2.6406388165  MEMB      89              0.0000000000
      9392        89  POPE      H14S          -27.7177977999      -23.0729817689        3.8714418919  MEMB      89              0.0000000000
      9393        89  POPE      C215          -26.6352651687      -21.1848449708        3.6442821660  MEMB      89              0.0000000000
      9394        89  POPE      H15R          -26.1238821471      -21.4949989098        4.5805585104  MEMB      89              0.0000000000
      9395        89  POPE      H15S          -27.0436606523      -20.1516336613        3.6471412158  MEMB      89              0.0000000000
      9396        89  POPE      C216          -25.8421104541      -21.2971466671        2.3645371777  MEMB      89              0.0000000000
      9397        89  POPE      H16R          -24.9613475895      -20.6206909200        2.3959335638  MEMB      89              0.0000000000
      9398        89  POPE      H16S          -26.4475851790      -20.9592942840        1.4964490026  MEMB      89              0.0000000000
      9399        89  POPE      C217          -25.3359498240      -22.7770230471        2.1045698855  MEMB      89              0.0000000000
      9400        89  POPE      H17R          -25.1369565443      -22.9270471314        1.0218808834  MEMB      89              0.0000000000
      9401        89  POPE      H17S          -26.1873146666      -23.4723122043        2.2660373651  MEMB      89              0.0000000000
      9402        89  POPE      C218          -24.1254764826      -23.3137356139        2.9674260563  MEMB      89              0.0000000000
      9403        89  POPE      H18R          -23.2864633004      -22.5898655463        3.0473615187  MEMB      89              0.0000000000
      9404        89  POPE      H18S          -23.6216797666      -24.2111287483        2.5488609246  MEMB      89              0.0000000000
      9405        89  POPE      H18T          -24.4237820712      -23.5596037948        4.0090027862  MEMB      89              0.0000000000
      9406        89  POPE      C33           -28.4923824508      -20.1431511044        9.5574543463  MEMB      89              0.0000000000
      9407        89  POPE      H3X           -29.2092883064      -20.7903695696        9.0083867102  MEMB      89              0.0000000000
      9408        89  POPE      H3Y           -27.8964366589      -20.7466963573       10.2750212048  MEMB      89              0.0000000000
      9409        89  POPE      C34           -27.5568708578      -19.6217979174        8.4215971313  MEMB      89              0.0000000000
      9410        89  POPE      H4X           -27.0355110502      -20.4333350216        7.8703147615  MEMB      89              0.0000000000
      9411        89  POPE      H4Y           -26.7728032277      -19.0000086275        8.9042326118  MEMB      89              0.0000000000
      9412        89  POPE      C35           -28.2404384137      -18.7521854777        7.3512247941  MEMB      89              0.0000000000
      9413        89  POPE      H5X           -28.9304776868      -17.9485118494        7.6863004278  MEMB      89              0.0000000000
      9414        89  POPE      H5Y           -28.8031281004      -19.4286701042        6.6729410494  MEMB      89              0.0000000000
      9415        89  POPE      C36           -27.2571613080      -17.8559648939        6.5989617371  MEMB      89              0.0000000000
      9416        89  POPE      H6X           -26.4502782526      -18.4081058224        6.0713246234  MEMB      89              0.0000000000
      9417        89  POPE      H6Y           -26.8352121806      -17.2327809844        7.4162270079  MEMB      89              0.0000000000
      9418        89  POPE      C37           -28.0687399936      -16.8912436604        5.7031927921  MEMB      89              0.0000000000
      9419        89  POPE      H7X           -27.4347381288      -15.9852394079        5.5958648413  MEMB      89              0.0000000000
      9420        89  POPE      H7Y           -29.0100890850      -16.5290369322        6.1690136923  MEMB      89              0.0000000000
      9421        89  POPE      C38           -28.4153678255      -17.6131417248        4.4083835829  MEMB      89              0.0000000000
      9422        89  POPE      H8X           -28.9922822673      -18.5455908719        4.5873517754  MEMB      89              0.0000000000
      9423        89  POPE      H8Y           -27.5171104440      -17.9912810162        3.8750308936  MEMB      89              0.0000000000
      9424        89  POPE      C39           -29.0863940547      -16.7029009548        3.3591938704  MEMB      89              0.0000000000
      9425        89  POPE      H9X           -28.2943623127      -15.9867976545        3.0522699043  MEMB      89              0.0000000000
      9426        89  POPE      H9Y           -29.9446314946      -16.0772648011        3.6852755025  MEMB      89              0.0000000000
      9427        89  POPE      C310          -29.5211643329      -17.5534158363        2.1889066276  MEMB      89              0.0000000000
      9428        89  POPE      H10X          -28.8618234319      -18.4378280864        2.0569735279  MEMB      89              0.0000000000
      9429        89  POPE      H10Y          -29.2894795027      -16.9351618972        1.2953703503  MEMB      89              0.0000000000
      9430        89  POPE      C311          -31.0255501152      -17.9172693877        2.1705141789  MEMB      89              0.0000000000
      9431        89  POPE      H11X          -31.6506846902      -17.0020008718        2.0942856683  MEMB      89              0.0000000000
      9432        89  POPE      H11Y          -31.4759223277      -18.2892743000        3.1155528376  MEMB      89              0.0000000000
      9433        89  POPE      C312          -31.1515356359      -18.9940625130        1.1475904722  MEMB      89              0.0000000000
      9434        89  POPE      H12X          -30.9367470412      -20.0016763975        1.5634043569  MEMB      89              0.0000000000
      9435        89  POPE      H12Y          -30.4062070411      -18.8686592898        0.3332944329  MEMB      89              0.0000000000
      9436        89  POPE      C313          -32.5772984512      -19.0410150189        0.4863025688  MEMB      89              0.0000000000
      9437        89  POPE      H13X          -32.7338792253      -18.0301679996        0.0527222356  MEMB      89              0.0000000000
      9438        89  POPE      H13Y          -33.3717254873      -19.3923812552        1.1789404669  MEMB      89              0.0000000000
      9439        89  POPE      C314          -32.6161488359      -20.1023544142       -0.6500224501  MEMB      89              0.0000000000
      9440        89  POPE      H14X          -31.7495249197      -19.6935947475       -1.2123397388  MEMB      89              0.0000000000
      9441        89  POPE      H14Y          -33.5891553125      -20.0428539521       -1.1829761974  MEMB      89              0.0000000000
      9442        89  POPE      C315          -32.3651266628      -21.6003127660       -0.2394298390  MEMB      89              0.0000000000
      9443        89  POPE      H15X          -33.2863512316      -22.0438425786        0.1952502426  MEMB      89              0.0000000000
      9444        89  POPE      H15Y          -31.3969488374      -21.6055796434        0.3054788272  MEMB      89              0.0000000000
      9445        89  POPE      C316          -32.0840811039      -22.5520797111       -1.4757061813  MEMB      89              0.0000000000
      9446        89  POPE      H16X          -32.7655840536      -22.3717576384       -2.3344007266  MEMB      89              0.0000000000
      9447        89  POPE      H16Y          -32.1012027598      -23.6124818979       -1.1446845970  MEMB      89              0.0000000000
      9448        89  POPE      H16Z          -31.0226903439      -22.4980720266       -1.7995157914  MEMB      89              0.0000000000
      9449        90  POPC      N             -36.3444808631       -4.5804882229       21.0701835291  MEMB      90              0.0000000000
      9450        90  POPC      C12           -37.8225977814       -4.6130501391       20.6913980316  MEMB      90              0.0000000000
      9451        90  POPC      H12A          -38.3764678926       -3.7740276754       21.0859473873  MEMB      90              0.0000000000
      9452        90  POPC      H12B          -38.1138385532       -5.5641318148       21.1121384420  MEMB      90              0.0000000000
      9453        90  POPC      C13           -35.6436950532       -5.7222668416       20.3694252724  MEMB      90              0.0000000000
      9454        90  POPC      H13A          -35.8320989913       -5.7246981762       19.3059883718  MEMB      90              0.0000000000
      9455        90  POPC      H13B          -34.6323917333       -5.4727227063       20.6547201751  MEMB      90              0.0000000000
      9456        90  POPC      H13C          -35.8791604026       -6.6925004587       20.7812537168  MEMB      90              0.0000000000
      9457        90  POPC      C14           -35.8228755864       -3.2713712034       20.5114481614  MEMB      90              0.0000000000
      9458        90  POPC      H14A          -36.0753952714       -3.3152504468       19.4623016200  MEMB      90              0.0000000000
      9459        90  POPC      H14B          -36.4014642825       -2.4956075921       20.9908497729  MEMB      90              0.0000000000
      9460        90  POPC      H14C          -34.7458113667       -3.2281282111       20.5782506352  MEMB      90              0.0000000000
      9461        90  POPC      C15           -36.1212134823       -4.7328929322       22.5374556327  MEMB      90              0.0000000000
      9462        90  POPC      H15A          -36.6583299011       -5.5193693344       23.0467303277  MEMB      90              0.0000000000
      9463        90  POPC      H15B          -36.4124769444       -3.8435418412       23.0765478496  MEMB      90              0.0000000000
      9464        90  POPC      H15C          -35.0482897498       -4.8151277190       22.6295002714  MEMB      90              0.0000000000
      9465        90  POPC      C11           -38.2722942607       -4.7709020034       19.1848167096  MEMB      90              0.0000000000
      9466        90  POPC      H11A          -39.3650726948       -4.9002428955       19.3378763116  MEMB      90              0.0000000000
      9467        90  POPC      H11B          -37.8027894410       -5.7043973898       18.8073614707  MEMB      90              0.0000000000
      9468        90  POPC      P             -38.2833375220       -3.4951812978       16.9090790773  MEMB      90              0.0000000000
      9469        90  POPC      O13           -38.3514987210       -2.0664684248       16.5359298964  MEMB      90              0.0000000000
      9470        90  POPC      O14           -39.5104698954       -4.3420684042       16.5508874195  MEMB      90              0.0000000000
      9471        90  POPC      O12           -37.9121704808       -3.5744089505       18.4146411756  MEMB      90              0.0000000000
      9472        90  POPC      O11           -37.0427401515       -4.1557380596       16.2247350926  MEMB      90              0.0000000000
      9473        90  POPC      C1            -35.7165252352       -4.2758329069       16.6782580417  MEMB      90              0.0000000000
      9474        90  POPC      HA            -35.6845832062       -4.5907423230       17.7432146826  MEMB      90              0.0000000000
      9475        90  POPC      HB            -35.2008544140       -3.3190603921       16.4480604277  MEMB      90              0.0000000000
      9476        90  POPC      C2            -34.9111410964       -5.4208293404       15.9874172438  MEMB      90              0.0000000000
      9477        90  POPC      HS            -33.8449723850       -5.3096830386       16.2793960359  MEMB      90              0.0000000000
      9478        90  POPC      O21           -34.9846633176       -5.4421494538       14.5879321766  MEMB      90              0.0000000000
      9479        90  POPC      C21           -34.5187675583       -4.5596660522       13.7941209482  MEMB      90              0.0000000000
      9480        90  POPC      O22           -33.9896350877       -3.5190796349       14.1620373041  MEMB      90              0.0000000000
      9481        90  POPC      C22           -34.8455068545       -5.1390399199       12.3984711482  MEMB      90              0.0000000000
      9482        90  POPC      H2R           -35.9425330539       -5.3017905160       12.3323889718  MEMB      90              0.0000000000
      9483        90  POPC      H2S           -34.3493364186       -6.1308496706       12.3317659932  MEMB      90              0.0000000000
      9484        90  POPC      C3            -35.4148593696       -6.8296164360       16.4940359894  MEMB      90              0.0000000000
      9485        90  POPC      HX            -35.3878686065       -6.8757781438       17.6037483948  MEMB      90              0.0000000000
      9486        90  POPC      HY            -34.7179684970       -7.5461928135       16.0090793491  MEMB      90              0.0000000000
      9487        90  POPC      O31           -36.7139524877       -7.2394580022       16.0512319460  MEMB      90              0.0000000000
      9488        90  POPC      C31           -36.9956936541       -7.5568422666       14.7141151974  MEMB      90              0.0000000000
      9489        90  POPC      O32           -36.1918890733       -7.6478789569       13.8742355476  MEMB      90              0.0000000000
      9490        90  POPC      C32           -38.4870906547       -7.4527346609       14.5469746645  MEMB      90              0.0000000000
      9491        90  POPC      H2X           -38.8997015648       -6.4358700971       14.7203519727  MEMB      90              0.0000000000
      9492        90  POPC      H2Y           -38.9183863791       -8.1257488965       15.3185684454  MEMB      90              0.0000000000
      9493        90  POPC      C23           -34.4111025419       -4.2021582740       11.2891095592  MEMB      90              0.0000000000
      9494        90  POPC      H3R           -34.5745296282       -4.6372539895       10.2799993432  MEMB      90              0.0000000000
      9495        90  POPC      H3S           -33.3178497132       -4.0293659455       11.3853501833  MEMB      90              0.0000000000
      9496        90  POPC      C24           -35.1261488419       -2.8555472985       11.3054427522  MEMB      90              0.0000000000
      9497        90  POPC      H4R           -34.4649260912       -2.2736716683       10.6282971139  MEMB      90              0.0000000000
      9498        90  POPC      H4S           -35.1969261716       -2.3680140366       12.3012452609  MEMB      90              0.0000000000
      9499        90  POPC      C25           -36.6042072607       -2.8206447658       10.7454225943  MEMB      90              0.0000000000
      9500        90  POPC      H5R           -37.1673714252       -3.4050522152       11.5041283418  MEMB      90              0.0000000000
      9501        90  POPC      H5S           -36.5840847749       -3.1429175415        9.6823811057  MEMB      90              0.0000000000
      9502        90  POPC      C26           -37.2676266424       -1.4498965698       10.7986824508  MEMB      90              0.0000000000
      9503        90  POPC      H6R           -36.8983361913       -0.7984505121        9.9779729438  MEMB      90              0.0000000000
      9504        90  POPC      H6S           -37.2096253187       -0.8402829789       11.7256821649  MEMB      90              0.0000000000
      9505        90  POPC      C27           -38.7631138101       -1.5089802649       10.4052159944  MEMB      90              0.0000000000
      9506        90  POPC      H7R           -39.2553952739       -0.5877301336       10.7837372940  MEMB      90              0.0000000000
      9507        90  POPC      H7S           -39.2835677838       -2.3814832090       10.8548674866  MEMB      90              0.0000000000
      9508        90  POPC      C28           -38.9432688749       -1.4603096678        8.8392615623  MEMB      90              0.0000000000
      9509        90  POPC      H8R           -38.3518917266       -2.3155930193        8.4480013393  MEMB      90              0.0000000000
      9510        90  POPC      H8S           -38.3773500436       -0.5963778142        8.4297755314  MEMB      90              0.0000000000
      9511        90  POPC      C29           -40.3808637764       -1.3506768605        8.3011207742  MEMB      90              0.0000000000
      9512        90  POPC      H91           -41.0565817615       -0.6866530180        8.8601173965  MEMB      90              0.0000000000
      9513        90  POPC      C210          -40.9162951520       -2.0248855585        7.2396015059  MEMB      90              0.0000000000
      9514        90  POPC      H101          -41.9845551233       -2.0297117614        6.9773088323  MEMB      90              0.0000000000
      9515        90  POPC      C211          -40.1275496583       -3.0367168322        6.4376900330  MEMB      90              0.0000000000
      9516        90  POPC      H11R          -40.7740298714       -3.9287211254        6.2937698233  MEMB      90              0.0000000000
      9517        90  POPC      H11S          -39.1833397575       -3.2986084351        6.9613324443  MEMB      90              0.0000000000
      9518        90  POPC      C212          -39.7894954150       -2.4682038398        5.0140073558  MEMB      90              0.0000000000
      9519        90  POPC      H12R          -40.7314712427       -2.2250795518        4.4774511080  MEMB      90              0.0000000000
      9520        90  POPC      H12S          -39.2767375537       -3.2130716052        4.3685837230  MEMB      90              0.0000000000
      9521        90  POPC      C213          -38.9143972333       -1.1808893455        5.1268752394  MEMB      90              0.0000000000
      9522        90  POPC      H13R          -37.9901941590       -1.4615354635        5.6758815232  MEMB      90              0.0000000000
      9523        90  POPC      H13S          -39.5066733791       -0.3797080022        5.6184430393  MEMB      90              0.0000000000
      9524        90  POPC      C214          -38.3309612025       -0.6734757934        3.7925820508  MEMB      90              0.0000000000
      9525        90  POPC      H14R          -37.6371087943        0.1880595990        3.8957640389  MEMB      90              0.0000000000
      9526        90  POPC      H14S          -39.2543300506       -0.3286620610        3.2799282215  MEMB      90              0.0000000000
      9527        90  POPC      C215          -37.6378643530       -1.7371926769        2.9204599587  MEMB      90              0.0000000000
      9528        90  POPC      H15R          -38.2839771756       -2.6409682869        2.9134752179  MEMB      90              0.0000000000
      9529        90  POPC      H15S          -36.6767437668       -2.0866106240        3.3545965544  MEMB      90              0.0000000000
      9530        90  POPC      C216          -37.3732266816       -1.3359050291        1.4236888814  MEMB      90              0.0000000000
      9531        90  POPC      H16R          -36.4579148373       -1.8774392775        1.1023391592  MEMB      90              0.0000000000
      9532        90  POPC      H16S          -37.1097801841       -0.2568478936        1.4471936323  MEMB      90              0.0000000000
      9533        90  POPC      C217          -38.5667060883       -1.6326717274        0.5547838795  MEMB      90              0.0000000000
      9534        90  POPC      H17R          -38.8120476085       -0.6035859124        0.2155022332  MEMB      90              0.0000000000
      9535        90  POPC      H17S          -39.4709005067       -1.9488653336        1.1176117725  MEMB      90              0.0000000000
      9536        90  POPC      C218          -38.2750783345       -2.5256459924       -0.5922382794  MEMB      90              0.0000000000
      9537        90  POPC      H18R          -39.1821097117       -2.9723661375       -1.0527341497  MEMB      90              0.0000000000
      9538        90  POPC      H18S          -37.6372523317       -3.3460803931       -0.1993177303  MEMB      90              0.0000000000
      9539        90  POPC      H18T          -37.7762258915       -1.9543101447       -1.4040539124  MEMB      90              0.0000000000
      9540        90  POPC      C33           -38.8364858228       -8.0874825389       13.1924211090  MEMB      90              0.0000000000
      9541        90  POPC      H3X           -39.8961694014       -8.4110662823       13.2741820608  MEMB      90              0.0000000000
      9542        90  POPC      H3Y           -38.2238577278       -9.0031054938       13.0487455159  MEMB      90              0.0000000000
      9543        90  POPC      C34           -38.7500613338       -7.1071184888       11.9695621391  MEMB      90              0.0000000000
      9544        90  POPC      H4X           -37.6492087217       -6.9745986731       11.8996826647  MEMB      90              0.0000000000
      9545        90  POPC      H4Y           -39.2019029851       -6.0953906594       12.0505994348  MEMB      90              0.0000000000
      9546        90  POPC      C35           -39.3534725409       -7.7237512835       10.6852657533  MEMB      90              0.0000000000
      9547        90  POPC      H5X           -40.4487622687       -7.8916943461       10.6049113488  MEMB      90              0.0000000000
      9548        90  POPC      H5Y           -38.9246989153       -8.7486032848       10.6729238097  MEMB      90              0.0000000000
      9549        90  POPC      C36           -38.9994451819       -6.8706029617        9.4778256114  MEMB      90              0.0000000000
      9550        90  POPC      H6X           -39.4905254174       -5.8985480328        9.6975303389  MEMB      90              0.0000000000
      9551        90  POPC      H6Y           -39.5171739623       -7.2697905396        8.5795338551  MEMB      90              0.0000000000
      9552        90  POPC      C37           -37.4674903914       -6.6026700910        9.2521245399  MEMB      90              0.0000000000
      9553        90  POPC      H7X           -36.8068980116       -7.4740908332        9.0557465952  MEMB      90              0.0000000000
      9554        90  POPC      H7Y           -37.0979069044       -6.0441330314       10.1385587621  MEMB      90              0.0000000000
      9555        90  POPC      C38           -37.3686442810       -5.6380233597        8.0702282619  MEMB      90              0.0000000000
      9556        90  POPC      H8X           -37.9941535164       -4.7485980293        8.2982243111  MEMB      90              0.0000000000
      9557        90  POPC      H8Y           -37.9163935933       -6.1953574417        7.2805010192  MEMB      90              0.0000000000
      9558        90  POPC      C39           -35.9280072105       -5.3329236875        7.5877638756  MEMB      90              0.0000000000
      9559        90  POPC      H9X           -35.2740181721       -6.2112177816        7.4000960164  MEMB      90              0.0000000000
      9560        90  POPC      H9Y           -35.5156332497       -4.6712196667        8.3792281069  MEMB      90              0.0000000000
      9561        90  POPC      C310          -35.9292386665       -4.8140641512        6.1144239840  MEMB      90              0.0000000000
      9562        90  POPC      H10X          -36.3211841498       -3.7749103067        6.0851174435  MEMB      90              0.0000000000
      9563        90  POPC      H10Y          -36.5328032689       -5.5701808511        5.5682393742  MEMB      90              0.0000000000
      9564        90  POPC      C311          -34.4945615211       -4.7521791633        5.5053920826  MEMB      90              0.0000000000
      9565        90  POPC      H11X          -33.9671422304       -5.7297439483        5.4826603988  MEMB      90              0.0000000000
      9566        90  POPC      H11Y          -33.8363767069       -4.1381668953        6.1566241075  MEMB      90              0.0000000000
      9567        90  POPC      C312          -34.3672143222       -4.1958961681        4.0982762053  MEMB      90              0.0000000000
      9568        90  POPC      H12X          -33.3087252519       -4.2282960636        3.7623123067  MEMB      90              0.0000000000
      9569        90  POPC      H12Y          -34.6867675230       -3.1333358529        4.0419563726  MEMB      90              0.0000000000
      9570        90  POPC      C313          -35.1614865344       -4.9349116419        3.0118169769  MEMB      90              0.0000000000
      9571        90  POPC      H13X          -36.2679788070       -5.0179859996        2.9561907005  MEMB      90              0.0000000000
      9572        90  POPC      H13Y          -34.8276217194       -5.9882546932        3.1272488056  MEMB      90              0.0000000000
      9573        90  POPC      C314          -34.5671310656       -4.5259011509        1.6099044940  MEMB      90              0.0000000000
      9574        90  POPC      H14X          -33.4611525700       -4.4343371805        1.6623309926  MEMB      90              0.0000000000
      9575        90  POPC      H14Y          -35.0203790481       -3.5515019718        1.3280653387  MEMB      90              0.0000000000
      9576        90  POPC      C315          -34.8424039934       -5.4949737491        0.4291219087  MEMB      90              0.0000000000
      9577        90  POPC      H15X          -35.9416468900       -5.6162288686        0.3228989447  MEMB      90              0.0000000000
      9578        90  POPC      H15Y          -34.4083469092       -6.4854092358        0.6839817160  MEMB      90              0.0000000000
      9579        90  POPC      C316          -34.2247797219       -5.0483452578       -0.9068560179  MEMB      90              0.0000000000
      9580        90  POPC      H16X          -34.6080987493       -5.6978279709       -1.7226745225  MEMB      90              0.0000000000
      9581        90  POPC      H16Y          -33.1238929412       -5.1878834499       -0.8530141670  MEMB      90              0.0000000000
      9582        90  POPC      H16Z          -34.4849400863       -3.9955827958       -1.1483696756  MEMB      90              0.0000000000
      9583        91  POPE      N              -5.9540880996       31.7821274556       20.4370283387  MEMB      91              0.0000000000
      9584        91  POPE      HN1            -6.5060787023       32.1600089149       19.6407168930  MEMB      91              0.0000000000
      9585        91  POPE      HN2            -6.2480285526       30.7903505226       20.5446273683  MEMB      91              0.0000000000
      9586        91  POPE      HN3            -6.1269547385       32.3544179186       21.2880282941  MEMB      91              0.0000000000
      9587        91  POPE      C12            -4.4372515514       31.8930923755       20.3001515069  MEMB      91              0.0000000000
      9588        91  POPE      H12A           -4.0537898208       31.6949492150       21.3238786425  MEMB      91              0.0000000000
      9589        91  POPE      H12B           -4.1133712694       32.9148620691       20.0079030421  MEMB      91              0.0000000000
      9590        91  POPE      C11            -3.9949757674       30.8086684721       19.3067676632  MEMB      91              0.0000000000
      9591        91  POPE      H11A           -4.5072106071       30.9442979430       18.3302733851  MEMB      91              0.0000000000
      9592        91  POPE      H11B           -4.3252887537       29.7752587567       19.5460971175  MEMB      91              0.0000000000
      9593        91  POPE      P              -1.9073705231       32.1327442806       18.4443539373  MEMB      91              0.0000000000
      9594        91  POPE      O13            -0.8992329656       32.6253498326       19.4348831251  MEMB      91              0.0000000000
      9595        91  POPE      O14            -2.8533342661       33.1441011605       17.8851888590  MEMB      91              0.0000000000
      9596        91  POPE      O11            -1.2065062307       31.5835398417       17.1324283642  MEMB      91              0.0000000000
      9597        91  POPE      O12            -2.5570445525       30.8179053924       19.0591982030  MEMB      91              0.0000000000
      9598        91  POPE      C1             -1.1814957774       30.2791063640       16.6289107633  MEMB      91              0.0000000000
      9599        91  POPE      HA             -2.1615970529       30.0257882335       16.1711418220  MEMB      91              0.0000000000
      9600        91  POPE      HB             -0.9173928178       29.5429152507       17.4179564330  MEMB      91              0.0000000000
      9601        91  POPE      C2             -0.2022487453       30.1309106806       15.3881956882  MEMB      91              0.0000000000
      9602        91  POPE      HS              0.8453600866       30.2347409247       15.7432390008  MEMB      91              0.0000000000
      9603        91  POPE      O21            -0.6323863722       31.2592764775       14.4606381386  MEMB      91              0.0000000000
      9604        91  POPE      C21             0.0883147007       32.3533731343       14.4619682243  MEMB      91              0.0000000000
      9605        91  POPE      O22             1.0990504007       32.5421038081       15.1115329358  MEMB      91              0.0000000000
      9606        91  POPE      C22            -0.5100954671       33.5449420060       13.7116003575  MEMB      91              0.0000000000
      9607        91  POPE      H2R            -0.4945905049       34.4276283337       14.3860968572  MEMB      91              0.0000000000
      9608        91  POPE      H2S            -1.5719431228       33.3364366778       13.4599532291  MEMB      91              0.0000000000
      9609        91  POPE      C3             -0.3575747336       28.7112818442       14.7455312816  MEMB      91              0.0000000000
      9610        91  POPE      HX             -0.2896489056       27.9196842587       15.5221139231  MEMB      91              0.0000000000
      9611        91  POPE      HY              0.3167138599       28.4162338827       13.9133038278  MEMB      91              0.0000000000
      9612        91  POPE      O31            -1.7660183777       28.5750684679       14.2736556717  MEMB      91              0.0000000000
      9613        91  POPE      C31            -2.0312315915       28.6823179115       13.0012444745  MEMB      91              0.0000000000
      9614        91  POPE      O32            -1.2039602555       28.6744773237       12.0624582757  MEMB      91              0.0000000000
      9615        91  POPE      C32            -3.6291398758       28.8362200955       12.8338321114  MEMB      91              0.0000000000
      9616        91  POPE      H2X            -3.9895269161       29.3220797388       13.7657027571  MEMB      91              0.0000000000
      9617        91  POPE      H2Y            -4.0542536170       27.8100693943       12.8090534688  MEMB      91              0.0000000000
      9618        91  POPE      C23             0.3588983439       33.7603431843       12.5043870351  MEMB      91              0.0000000000
      9619        91  POPE      H3R             1.4468675025       33.7033761594       12.7221001656  MEMB      91              0.0000000000
      9620        91  POPE      H3S             0.0708668117       34.8018846843       12.2464140869  MEMB      91              0.0000000000
      9621        91  POPE      C24            -0.0368775193       32.9650513270       11.2420569111  MEMB      91              0.0000000000
      9622        91  POPE      H4R            -1.0943685241       33.2009592033       10.9963312370  MEMB      91              0.0000000000
      9623        91  POPE      H4S            -0.1235787219       31.8786930730       11.4579961903  MEMB      91              0.0000000000
      9624        91  POPE      C25             0.9060834636       33.3355539287       10.0742807130  MEMB      91              0.0000000000
      9625        91  POPE      H5R             1.8560977783       33.7808013056       10.4397238105  MEMB      91              0.0000000000
      9626        91  POPE      H5S             0.3320910097       34.1711845302        9.6197747425  MEMB      91              0.0000000000
      9627        91  POPE      C26             1.1857310556       32.1447169960        9.1439843312  MEMB      91              0.0000000000
      9628        91  POPE      H6R             1.8900308501       31.4774823358        9.6853542149  MEMB      91              0.0000000000
      9629        91  POPE      H6S             1.6044459524       32.5328899041        8.1909266022  MEMB      91              0.0000000000
      9630        91  POPE      C27            -0.0740229931       31.3190144278        8.7151607672  MEMB      91              0.0000000000
      9631        91  POPE      H7R            -0.9753295052       31.9685622277        8.7077156890  MEMB      91              0.0000000000
      9632        91  POPE      H7S            -0.2979124151       30.6487375976        9.5724380359  MEMB      91              0.0000000000
      9633        91  POPE      C28             0.0883931465       30.4462854069        7.5476877279  MEMB      91              0.0000000000
      9634        91  POPE      H8R             0.9782820963       29.7868030365        7.6342992149  MEMB      91              0.0000000000
      9635        91  POPE      H8S             0.1770845905       31.0480010500        6.6179601230  MEMB      91              0.0000000000
      9636        91  POPE      C29            -1.0710045026       29.5101899234        7.3063233272  MEMB      91              0.0000000000
      9637        91  POPE      H91            -1.3247795871       29.0179722092        8.2567539401  MEMB      91              0.0000000000
      9638        91  POPE      C210           -1.8223065250       29.2673590455        6.2687330043  MEMB      91              0.0000000000
      9639        91  POPE      H101           -2.6633654146       28.5913376597        6.4823104575  MEMB      91              0.0000000000
      9640        91  POPE      C211           -1.6059841870       29.9746603311        4.9280664116  MEMB      91              0.0000000000
      9641        91  POPE      H11R           -1.8248923987       29.2777506089        4.0909785082  MEMB      91              0.0000000000
      9642        91  POPE      H11S           -0.5097373369       30.1526051174        4.8980763224  MEMB      91              0.0000000000
      9643        91  POPE      C212           -2.4180415634       31.3060801114        4.7840251832  MEMB      91              0.0000000000
      9644        91  POPE      H12R           -2.1090034261       31.8516775747        3.8668887320  MEMB      91              0.0000000000
      9645        91  POPE      H12S           -2.0380984244       31.8964172200        5.6451101284  MEMB      91              0.0000000000
      9646        91  POPE      C213           -3.9352683902       31.1908646703        4.8424202339  MEMB      91              0.0000000000
      9647        91  POPE      H13R           -4.2091513486       30.3255737512        5.4831855097  MEMB      91              0.0000000000
      9648        91  POPE      H13S           -4.3753860801       31.0460882165        3.8326393423  MEMB      91              0.0000000000
      9649        91  POPE      C214           -4.5112418787       32.4267880531        5.5277104506  MEMB      91              0.0000000000
      9650        91  POPE      H14R           -4.0487972801       32.3629181965        6.5358700263  MEMB      91              0.0000000000
      9651        91  POPE      H14S           -5.5877427238       32.1585038477        5.5867912103  MEMB      91              0.0000000000
      9652        91  POPE      C215           -4.3442400449       33.7438096140        4.7055603666  MEMB      91              0.0000000000
      9653        91  POPE      H15R           -3.3085392644       34.1043586903        4.8834631709  MEMB      91              0.0000000000
      9654        91  POPE      H15S           -5.0779518035       34.4555346400        5.1408024359  MEMB      91              0.0000000000
      9655        91  POPE      C216           -4.5556981853       33.5316106081        3.1824136323  MEMB      91              0.0000000000
      9656        91  POPE      H16R           -3.8469597001       32.8040054260        2.7323009703  MEMB      91              0.0000000000
      9657        91  POPE      H16S           -4.2991502523       34.4779664170        2.6600011013  MEMB      91              0.0000000000
      9658        91  POPE      C217           -5.9730631116       33.1572209268        2.7693306592  MEMB      91              0.0000000000
      9659        91  POPE      H17R           -6.6002432101       33.8703921504        3.3458314180  MEMB      91              0.0000000000
      9660        91  POPE      H17S           -6.2579402919       32.1593897437        3.1661919271  MEMB      91              0.0000000000
      9661        91  POPE      C218           -6.4546419734       33.1915058269        1.2663679490  MEMB      91              0.0000000000
      9662        91  POPE      H18R           -7.4597493150       32.7461477730        1.1059447985  MEMB      91              0.0000000000
      9663        91  POPE      H18S           -5.6944865901       32.6342524648        0.6781917833  MEMB      91              0.0000000000
      9664        91  POPE      H18T           -6.4209363615       34.2712775915        1.0069890796  MEMB      91              0.0000000000
      9665        91  POPE      C33            -4.1041441441       29.4101955542       11.4878314090  MEMB      91              0.0000000000
      9666        91  POPE      H3X            -5.0521955703       28.8745088521       11.2674700572  MEMB      91              0.0000000000
      9667        91  POPE      H3Y            -3.3328222168       29.2186436978       10.7114992005  MEMB      91              0.0000000000
      9668        91  POPE      C34            -4.3874109632       30.8767145390       11.3765113622  MEMB      91              0.0000000000
      9669        91  POPE      H4X            -3.4293601637       31.4304579456       11.4756469590  MEMB      91              0.0000000000
      9670        91  POPE      H4Y            -5.1048941229       31.2036668002       12.1592251748  MEMB      91              0.0000000000
      9671        91  POPE      C35            -4.9573456595       31.2546978464        9.9999769466  MEMB      91              0.0000000000
      9672        91  POPE      H5X            -5.9037452131       30.6731526265       10.0212778749  MEMB      91              0.0000000000
      9673        91  POPE      H5Y            -4.3288878893       30.7694138944        9.2228918433  MEMB      91              0.0000000000
      9674        91  POPE      C36            -5.1729754897       32.6768425553        9.5439848020  MEMB      91              0.0000000000
      9675        91  POPE      H6X            -5.8673226093       33.1984738726       10.2368798238  MEMB      91              0.0000000000
      9676        91  POPE      H6Y            -5.6467554154       32.6814259909        8.5390807391  MEMB      91              0.0000000000
      9677        91  POPE      C37            -3.8458215632       33.4390468884        9.6035222246  MEMB      91              0.0000000000
      9678        91  POPE      H7X            -3.0062397331       32.8263585933        9.2110478203  MEMB      91              0.0000000000
      9679        91  POPE      H7Y            -3.6088081598       33.6253940753       10.6728314189  MEMB      91              0.0000000000
      9680        91  POPE      C38            -3.8947427515       34.7699414141        8.8000215652  MEMB      91              0.0000000000
      9681        91  POPE      H8X            -4.4765014674       35.3489825277        9.5487467037  MEMB      91              0.0000000000
      9682        91  POPE      H8Y            -4.5117280418       34.7169357355        7.8776108218  MEMB      91              0.0000000000
      9683        91  POPE      C39            -2.5733772990       35.5583280069        8.5481391353  MEMB      91              0.0000000000
      9684        91  POPE      H9X            -2.0053608968       35.5281424223        9.5024803676  MEMB      91              0.0000000000
      9685        91  POPE      H9Y            -2.9156522791       36.6043953162        8.3967738663  MEMB      91              0.0000000000
      9686        91  POPE      C310           -1.7948786352       34.9927416883        7.3285254161  MEMB      91              0.0000000000
      9687        91  POPE      H10X           -2.5377622607       34.9175016048        6.5058567048  MEMB      91              0.0000000000
      9688        91  POPE      H10Y           -1.5555095817       33.9229287138        7.5088684293  MEMB      91              0.0000000000
      9689        91  POPE      C311           -0.5041684185       35.7503740772        6.8950110490  MEMB      91              0.0000000000
      9690        91  POPE      H11X            0.0799704138       35.9357299693        7.8216959305  MEMB      91              0.0000000000
      9691        91  POPE      H11Y           -0.8016032382       36.7252944236        6.4529878727  MEMB      91              0.0000000000
      9692        91  POPE      C312            0.5064213458       35.0132161860        5.8976437612  MEMB      91              0.0000000000
      9693        91  POPE      H12X            0.6849621650       33.9807456822        6.2670333555  MEMB      91              0.0000000000
      9694        91  POPE      H12Y            1.4764279965       35.5457164167        5.7983886338  MEMB      91              0.0000000000
      9695        91  POPE      C313           -0.0072393198       34.8747708019        4.5166476831  MEMB      91              0.0000000000
      9696        91  POPE      H13X           -0.1542369265       35.8365573560        3.9802902704  MEMB      91              0.0000000000
      9697        91  POPE      H13Y           -1.0433608775       34.4738365367        4.5116666500  MEMB      91              0.0000000000
      9698        91  POPE      C314            0.8279667248       34.0455205897        3.6711021290  MEMB      91              0.0000000000
      9699        91  POPE      H14X            0.6953268958       33.0547037373        4.1558800473  MEMB      91              0.0000000000
      9700        91  POPE      H14Y            1.9048679155       34.2959155445        3.7802204842  MEMB      91              0.0000000000
      9701        91  POPE      C315            0.4011143764       33.8412563648        2.1799653903  MEMB      91              0.0000000000
      9702        91  POPE      H15X            0.9280169672       32.9530901151        1.7702640823  MEMB      91              0.0000000000
      9703        91  POPE      H15Y            0.8702355760       34.6443355335        1.5722551772  MEMB      91              0.0000000000
      9704        91  POPE      C316           -1.0793696954       33.8134541556        1.8925612981  MEMB      91              0.0000000000
      9705        91  POPE      H16X           -1.1585836375       33.6060192034        0.8039766174  MEMB      91              0.0000000000
      9706        91  POPE      H16Y           -1.5960949964       34.7522898705        2.1856525635  MEMB      91              0.0000000000
      9707        91  POPE      H16Z           -1.5529177564       32.9393966775        2.3886418216  MEMB      91              0.0000000000
      9708        92  POPE      N              20.8170946612      -26.0136567257       21.6160228660  MEMB      92              0.0000000000
      9709        92  POPE      HN1            19.9570563684      -26.5980846571       21.6354699707  MEMB      92              0.0000000000
      9710        92  POPE      HN2            21.4425544552      -26.0067994558       22.4468977084  MEMB      92              0.0000000000
      9711        92  POPE      HN3            20.4083236121      -25.0595792956       21.6811574044  MEMB      92              0.0000000000
      9712        92  POPE      C12            21.5557994455      -26.2445444440       20.2932863288  MEMB      92              0.0000000000
      9713        92  POPE      H12A           21.8674384289      -27.3109344010       20.2895049524  MEMB      92              0.0000000000
      9714        92  POPE      H12B           22.4270989611      -25.5566137704       20.2495882993  MEMB      92              0.0000000000
      9715        92  POPE      C11            20.7355869866      -25.9534660385       19.0384097335  MEMB      92              0.0000000000
      9716        92  POPE      H11A           20.0919025624      -26.8507242853       18.9162656135  MEMB      92              0.0000000000
      9717        92  POPE      H11B           21.3584635547      -25.9011616518       18.1199272704  MEMB      92              0.0000000000
      9718        92  POPE      P              19.6861179172      -23.6528759343       18.2724435861  MEMB      92              0.0000000000
      9719        92  POPE      O13            20.9350540966      -23.2964985594       17.5574548742  MEMB      92              0.0000000000
      9720        92  POPE      O14            18.9833363335      -22.5856972254       18.9492058825  MEMB      92              0.0000000000
      9721        92  POPE      O11            18.7245644790      -24.1686567635       17.0975914413  MEMB      92              0.0000000000
      9722        92  POPE      O12            19.7650876840      -24.9033659085       19.1755852852  MEMB      92              0.0000000000
      9723        92  POPE      C1             17.7398144067      -25.2110905652       17.2202997496  MEMB      92              0.0000000000
      9724        92  POPE      HA             16.8308225625      -24.8805761139       17.7669393291  MEMB      92              0.0000000000
      9725        92  POPE      HB             18.2176914623      -26.0933864119       17.6972784632  MEMB      92              0.0000000000
      9726        92  POPE      C2             17.3155499616      -25.5412520950       15.7549036788  MEMB      92              0.0000000000
      9727        92  POPE      HS             16.6389613588      -26.3741340247       16.0427516152  MEMB      92              0.0000000000
      9728        92  POPE      O21            18.5963937620      -25.9254712314       15.0830424536  MEMB      92              0.0000000000
      9729        92  POPE      C21            18.4062102735      -26.9026720917       14.2379162399  MEMB      92              0.0000000000
      9730        92  POPE      O22            17.3285254980      -27.4725085628       14.0002342363  MEMB      92              0.0000000000
      9731        92  POPE      C22            19.6321541622      -27.3981967412       13.5025568195  MEMB      92              0.0000000000
      9732        92  POPE      H2R            19.1479829088      -27.8676521730       12.6196577468  MEMB      92              0.0000000000
      9733        92  POPE      H2S            20.1287096810      -28.1960726683       14.0951343254  MEMB      92              0.0000000000
      9734        92  POPE      C3             16.6155058135      -24.4592861414       14.9666158348  MEMB      92              0.0000000000
      9735        92  POPE      HX             15.7932056837      -23.9716128168       15.5325826583  MEMB      92              0.0000000000
      9736        92  POPE      HY             16.3239931632      -24.8061675476       13.9522124919  MEMB      92              0.0000000000
      9737        92  POPE      O31            17.5827124635      -23.3978932611       14.8365841494  MEMB      92              0.0000000000
      9738        92  POPE      C31            17.9111651384      -23.0547324455       13.6169161697  MEMB      92              0.0000000000
      9739        92  POPE      O32            17.4013423220      -23.3981536194       12.5820550202  MEMB      92              0.0000000000
      9740        92  POPE      C32            19.1951198831      -22.2172053923       13.7083973613  MEMB      92              0.0000000000
      9741        92  POPE      H2X            20.0455538994      -22.9294706969       13.7697273234  MEMB      92              0.0000000000
      9742        92  POPE      H2Y            19.1567817025      -21.4830310259       14.5413673663  MEMB      92              0.0000000000
      9743        92  POPE      C23            20.5640789034      -26.2150942870       13.1136840528  MEMB      92              0.0000000000
      9744        92  POPE      H3R            21.2593765794      -26.0209723386       13.9581947877  MEMB      92              0.0000000000
      9745        92  POPE      H3S            19.8784772698      -25.3432040226       13.0498198119  MEMB      92              0.0000000000
      9746        92  POPE      C24            21.4339306129      -26.3348988143       11.7784790204  MEMB      92              0.0000000000
      9747        92  POPE      H4R            22.1798988787      -27.1580988173       11.7645566565  MEMB      92              0.0000000000
      9748        92  POPE      H4S            21.9520981319      -25.3569929795       11.6808899660  MEMB      92              0.0000000000
      9749        92  POPE      C25            20.5425558012      -26.6409661120       10.5919522066  MEMB      92              0.0000000000
      9750        92  POPE      H5R            19.9483114489      -27.5580553166       10.7923072154  MEMB      92              0.0000000000
      9751        92  POPE      H5S            21.0571666697      -26.8033799253        9.6208097245  MEMB      92              0.0000000000
      9752        92  POPE      C26            19.5275995517      -25.5102781780       10.3619943822  MEMB      92              0.0000000000
      9753        92  POPE      H6R            20.0853830936      -24.5654036033       10.1876084178  MEMB      92              0.0000000000
      9754        92  POPE      H6S            18.9846251622      -25.4364635540       11.3284579358  MEMB      92              0.0000000000
      9755        92  POPE      C27            18.4412452530      -25.7977314001        9.2704771651  MEMB      92              0.0000000000
      9756        92  POPE      H7R            17.9337476842      -26.7297700001        9.5992194031  MEMB      92              0.0000000000
      9757        92  POPE      H7S            18.8070462981      -25.9071611579        8.2271480424  MEMB      92              0.0000000000
      9758        92  POPE      C28            17.3002934790      -24.7513033211        9.3293926767  MEMB      92              0.0000000000
      9759        92  POPE      H8R            16.8713446694      -24.7926975597       10.3534086596  MEMB      92              0.0000000000
      9760        92  POPE      H8S            16.4416117655      -24.9541631542        8.6542371408  MEMB      92              0.0000000000
      9761        92  POPE      C29            17.8363009253      -23.3861544312        8.9887634781  MEMB      92              0.0000000000
      9762        92  POPE      H91            17.8450410023      -22.7271526882        9.8694673315  MEMB      92              0.0000000000
      9763        92  POPE      C210           18.1187286954      -22.9144160457        7.7000583003  MEMB      92              0.0000000000
      9764        92  POPE      H101           18.4266933646      -21.8630581746        7.6010409058  MEMB      92              0.0000000000
      9765        92  POPE      C211           17.9068812730      -23.6526101191        6.4542390235  MEMB      92              0.0000000000
      9766        92  POPE      H11R           17.0091374500      -23.2082323584        5.9737127793  MEMB      92              0.0000000000
      9767        92  POPE      H11S           17.6956829616      -24.7328656455        6.6051179008  MEMB      92              0.0000000000
      9768        92  POPE      C212           19.0942833183      -23.4487728100        5.6187474593  MEMB      92              0.0000000000
      9769        92  POPE      H12R           18.8828180227      -24.0960188990        4.7408656145  MEMB      92              0.0000000000
      9770        92  POPE      H12S           20.0611433963      -23.8112767637        6.0287400107  MEMB      92              0.0000000000
      9771        92  POPE      C213           19.5532474459      -22.0060254588        5.1470301266  MEMB      92              0.0000000000
      9772        92  POPE      H13R           19.5722698599      -21.2828988682        5.9902662366  MEMB      92              0.0000000000
      9773        92  POPE      H13S           18.8092657374      -21.6609235990        4.3975525096  MEMB      92              0.0000000000
      9774        92  POPE      C214           20.9389314515      -21.9784331348        4.3997295181  MEMB      92              0.0000000000
      9775        92  POPE      H14R           21.6877140917      -22.2075083694        5.1878729106  MEMB      92              0.0000000000
      9776        92  POPE      H14S           21.1125683770      -20.9294138840        4.0776580099  MEMB      92              0.0000000000
      9777        92  POPE      C215           21.1517169936      -22.9640783292        3.2528160375  MEMB      92              0.0000000000
      9778        92  POPE      H15R           20.7576450551      -23.9554879043        3.5628733313  MEMB      92              0.0000000000
      9779        92  POPE      H15S           22.2472541666      -23.0596947330        3.0947752447  MEMB      92              0.0000000000
      9780        92  POPE      C216           20.5927611408      -22.5421936765        1.8545125374  MEMB      92              0.0000000000
      9781        92  POPE      H16R           21.0754751158      -21.5723438651        1.6081396107  MEMB      92              0.0000000000
      9782        92  POPE      H16S           19.4883000249      -22.5364734745        1.7342884750  MEMB      92              0.0000000000
      9783        92  POPE      C217           21.0295540225      -23.5355420959        0.7802294090  MEMB      92              0.0000000000
      9784        92  POPE      H17R           22.1159686024      -23.7662241092        0.8086920101  MEMB      92              0.0000000000
      9785        92  POPE      H17S           20.8309413701      -22.9862444134       -0.1648344195  MEMB      92              0.0000000000
      9786        92  POPE      C218           20.3369609400      -24.8917774285        0.7380522435  MEMB      92              0.0000000000
      9787        92  POPE      H18R           20.5875149332      -25.5472652571        1.5993772370  MEMB      92              0.0000000000
      9788        92  POPE      H18S           20.6916242483      -25.4756229586       -0.1381095958  MEMB      92              0.0000000000
      9789        92  POPE      H18T           19.2343664173      -24.7981610794        0.6388436981  MEMB      92              0.0000000000
      9790        92  POPE      C33            19.4186829275      -21.5604337021       12.3442312974  MEMB      92              0.0000000000
      9791        92  POPE      H3X            18.6066689122      -20.8243122964       12.1623521750  MEMB      92              0.0000000000
      9792        92  POPE      H3Y            19.2991294332      -22.3551457209       11.5771193529  MEMB      92              0.0000000000
      9793        92  POPE      C34            20.7857638513      -20.8202442750       12.3429558558  MEMB      92              0.0000000000
      9794        92  POPE      H4X            21.4072141807      -21.6338466201       12.7744316937  MEMB      92              0.0000000000
      9795        92  POPE      H4Y            20.7746710077      -19.9870753796       13.0778215838  MEMB      92              0.0000000000
      9796        92  POPE      C35            21.0810243429      -20.3933810259       10.9717479099  MEMB      92              0.0000000000
      9797        92  POPE      H5X            21.8740674336      -19.6244522716       10.8527850377  MEMB      92              0.0000000000
      9798        92  POPE      H5Y            20.0747684736      -20.0383936160       10.6623062648  MEMB      92              0.0000000000
      9799        92  POPE      C36            21.3992577934      -21.4866595710        9.9035871200  MEMB      92              0.0000000000
      9800        92  POPE      H6X            21.2025873823      -21.0767216840        8.8898849768  MEMB      92              0.0000000000
      9801        92  POPE      H6Y            20.9299283703      -22.4662459022       10.1369573768  MEMB      92              0.0000000000
      9802        92  POPE      C37            22.9241534209      -21.6753792873        9.8129167082  MEMB      92              0.0000000000
      9803        92  POPE      H7X            23.2073158919      -22.4220395635       10.5853405192  MEMB      92              0.0000000000
      9804        92  POPE      H7Y            23.4430276852      -20.7035097010        9.9563043172  MEMB      92              0.0000000000
      9805        92  POPE      C38            23.5573857236      -22.5149700084        8.6690461886  MEMB      92              0.0000000000
      9806        92  POPE      H8X            24.5281372030      -22.8338836307        9.1052303654  MEMB      92              0.0000000000
      9807        92  POPE      H8Y            23.7380216041      -21.9190581085        7.7489479150  MEMB      92              0.0000000000
      9808        92  POPE      C39            22.7901792099      -23.8144309438        8.3936543641  MEMB      92              0.0000000000
      9809        92  POPE      H9X            21.7528287812      -23.5330743791        8.1124713082  MEMB      92              0.0000000000
      9810        92  POPE      H9Y            22.7897444770      -24.6060859576        9.1731431933  MEMB      92              0.0000000000
      9811        92  POPE      C310           23.3439878557      -24.5490300634        7.1079743338  MEMB      92              0.0000000000
      9812        92  POPE      H10X           24.4220524217      -24.7417038457        7.2949893438  MEMB      92              0.0000000000
      9813        92  POPE      H10Y           23.1842617695      -23.9000697357        6.2204733989  MEMB      92              0.0000000000
      9814        92  POPE      C311           22.6979312349      -25.9070131146        6.9847733884  MEMB      92              0.0000000000
      9815        92  POPE      H11X           21.5956840827      -25.8077402005        7.0823283088  MEMB      92              0.0000000000
      9816        92  POPE      H11Y           22.9986510027      -26.5165049707        7.8636415107  MEMB      92              0.0000000000
      9817        92  POPE      C312           22.7860835022      -26.5950792871        5.6558881626  MEMB      92              0.0000000000
      9818        92  POPE      H12X           23.8067010188      -26.6625920941        5.2221802594  MEMB      92              0.0000000000
      9819        92  POPE      H12Y           22.3391212651      -25.8499532987        4.9635497541  MEMB      92              0.0000000000
      9820        92  POPE      C313           22.3736686091      -28.0241389915        5.5806190424  MEMB      92              0.0000000000
      9821        92  POPE      H13X           21.4364821633      -28.2636287256        6.1271049426  MEMB      92              0.0000000000
      9822        92  POPE      H13Y           23.2316452572      -28.5846968816        6.0095387333  MEMB      92              0.0000000000
      9823        92  POPE      C314           22.3876780773      -28.6964489496        4.1738344062  MEMB      92              0.0000000000
      9824        92  POPE      H14X           22.1412536623      -29.7758838557        4.2655730820  MEMB      92              0.0000000000
      9825        92  POPE      H14Y           23.4501973476      -28.7008655556        3.8492509010  MEMB      92              0.0000000000
      9826        92  POPE      C315           21.5050232234      -28.0181686654        3.1852210902  MEMB      92              0.0000000000
      9827        92  POPE      H15X           22.0753797378      -27.1216076689        2.8608875200  MEMB      92              0.0000000000
      9828        92  POPE      H15Y           20.5680515429      -27.6936636795        3.6863215497  MEMB      92              0.0000000000
      9829        92  POPE      C316           21.0707499947      -28.9336186085        2.1029348267  MEMB      92              0.0000000000
      9830        92  POPE      H16X           20.6006782842      -29.8735157782        2.4634173443  MEMB      92              0.0000000000
      9831        92  POPE      H16Y           21.9914441446      -29.2219764757        1.5520341425  MEMB      92              0.0000000000
      9832        92  POPE      H16Z           20.4232107171      -28.3534581254        1.4112499108  MEMB      92              0.0000000000
      9833        93  POPC      N              27.3412920697      -12.5861711444       21.0613384403  MEMB      93              0.0000000000
      9834        93  POPC      C12            28.2278657999      -12.6465906597       19.8681344349  MEMB      93              0.0000000000
      9835        93  POPC      H12A           27.7898271475      -13.4079070996       19.2397084388  MEMB      93              0.0000000000
      9836        93  POPC      H12B           29.2461337194      -12.8851658529       20.1376010563  MEMB      93              0.0000000000
      9837        93  POPC      C13            27.7750656137      -11.6077205466       22.1106729166  MEMB      93              0.0000000000
      9838        93  POPC      H13A           28.8150329817      -11.5923612268       22.4015887523  MEMB      93              0.0000000000
      9839        93  POPC      H13B           27.4947360475      -10.6164525338       21.7863229782  MEMB      93              0.0000000000
      9840        93  POPC      H13C           27.1079591406      -11.6932793328       22.9556870212  MEMB      93              0.0000000000
      9841        93  POPC      C14            25.9390978625      -12.3155456396       20.6504160690  MEMB      93              0.0000000000
      9842        93  POPC      H14A           25.7227675444      -13.0842992017       19.9233540414  MEMB      93              0.0000000000
      9843        93  POPC      H14B           25.2823145455      -12.4413554158       21.4984770023  MEMB      93              0.0000000000
      9844        93  POPC      H14C           25.8522587765      -11.3162610633       20.2500546692  MEMB      93              0.0000000000
      9845        93  POPC      C15            27.4460963393      -13.9697834665       21.7615812772  MEMB      93              0.0000000000
      9846        93  POPC      H15A           26.7362445593      -14.0797434400       22.5680670290  MEMB      93              0.0000000000
      9847        93  POPC      H15B           28.4793111146      -14.1857580759       21.9901026139  MEMB      93              0.0000000000
      9848        93  POPC      H15C           27.1856608455      -14.8125472015       21.1384259004  MEMB      93              0.0000000000
      9849        93  POPC      C11            28.2008428741      -11.3426528600       18.9381469503  MEMB      93              0.0000000000
      9850        93  POPC      H11A           29.1173080186      -11.4519128799       18.3197013410  MEMB      93              0.0000000000
      9851        93  POPC      H11B           28.3961717659      -10.3225747201       19.3326189830  MEMB      93              0.0000000000
      9852        93  POPC      P              26.8828810865      -12.3344196966       16.8955308264  MEMB      93              0.0000000000
      9853        93  POPC      O13            26.3750313019      -13.6362428465       17.2662319477  MEMB      93              0.0000000000
      9854        93  POPC      O14            28.0980476259      -12.2971316947       16.0619185664  MEMB      93              0.0000000000
      9855        93  POPC      O12            27.0031061936      -11.4217452117       18.1871034213  MEMB      93              0.0000000000
      9856        93  POPC      O11            25.7478215358      -11.5927322357       16.1989251543  MEMB      93              0.0000000000
      9857        93  POPC      C1             24.5244216255      -11.3905584555       16.8010409671  MEMB      93              0.0000000000
      9858        93  POPC      HA             24.6968857167      -10.9921227371       17.8236973331  MEMB      93              0.0000000000
      9859        93  POPC      HB             23.8886756965      -12.3006715259       16.8439633226  MEMB      93              0.0000000000
      9860        93  POPC      C2             23.6273825073      -10.3496708233       15.9318156113  MEMB      93              0.0000000000
      9861        93  POPC      HS             22.5781673674      -10.5019582585       16.2638954153  MEMB      93              0.0000000000
      9862        93  POPC      O21            23.7178271613      -10.7420161819       14.5360188702  MEMB      93              0.0000000000
      9863        93  POPC      C21            22.8986384926      -10.2745078676       13.6890367458  MEMB      93              0.0000000000
      9864        93  POPC      O22            21.9932880928       -9.4914580198       13.9175254826  MEMB      93              0.0000000000
      9865        93  POPC      C22            23.2942351143      -10.7156940727       12.2373722586  MEMB      93              0.0000000000
      9866        93  POPC      H2R            22.5938472684      -11.5415851204       11.9890143204  MEMB      93              0.0000000000
      9867        93  POPC      H2S            24.2955940529      -11.1827267829       12.1212608437  MEMB      93              0.0000000000
      9868        93  POPC      C3             24.1808099636       -8.9479098007       16.1996744217  MEMB      93              0.0000000000
      9869        93  POPC      HX             23.9798129562       -8.8210872276       17.2849565304  MEMB      93              0.0000000000
      9870        93  POPC      HY             23.7054969049       -8.1279117965       15.6200180935  MEMB      93              0.0000000000
      9871        93  POPC      O31            25.5740695614       -8.8737869085       16.1589501400  MEMB      93              0.0000000000
      9872        93  POPC      C31            26.0448206825       -8.6495532489       14.9481441062  MEMB      93              0.0000000000
      9873        93  POPC      O32            25.4008454750       -8.3104836252       13.9976302209  MEMB      93              0.0000000000
      9874        93  POPC      C32            27.5878638604       -8.7950238865       14.9276229772  MEMB      93              0.0000000000
      9875        93  POPC      H2X            27.9660995303       -9.7478542412       15.3558440152  MEMB      93              0.0000000000
      9876        93  POPC      H2Y            27.9815390032       -7.8834368010       15.4259699562  MEMB      93              0.0000000000
      9877        93  POPC      C23            23.2305299589       -9.4692990433       11.2801714575  MEMB      93              0.0000000000
      9878        93  POPC      H3R            23.8017921231       -8.5692214971       11.5929670301  MEMB      93              0.0000000000
      9879        93  POPC      H3S            22.1757641025       -9.1707387606       11.0994736392  MEMB      93              0.0000000000
      9880        93  POPC      C24            23.8151124061       -9.9282483638        9.9945429244  MEMB      93              0.0000000000
      9881        93  POPC      H4R            23.2500525842      -10.8847616335        9.9840302094  MEMB      93              0.0000000000
      9882        93  POPC      H4S            24.8720658418      -10.2533574632       10.1016630646  MEMB      93              0.0000000000
      9883        93  POPC      C25            23.6217933503       -9.0951159305        8.6255829766  MEMB      93              0.0000000000
      9884        93  POPC      H5R            22.5437962851       -8.8386871413        8.5450374920  MEMB      93              0.0000000000
      9885        93  POPC      H5S            23.9109077602       -9.7840917767        7.8033634570  MEMB      93              0.0000000000
      9886        93  POPC      C26            24.3515594281       -7.7863357279        8.5337360296  MEMB      93              0.0000000000
      9887        93  POPC      H6R            24.1240206384       -7.1691886580        9.4291004098  MEMB      93              0.0000000000
      9888        93  POPC      H6S            24.1224942889       -7.2735639550        7.5751357923  MEMB      93              0.0000000000
      9889        93  POPC      C27            25.8637155821       -7.8493860950        8.6227884704  MEMB      93              0.0000000000
      9890        93  POPC      H7R            26.1123266853       -8.1748491792        9.6555464663  MEMB      93              0.0000000000
      9891        93  POPC      H7S            26.3875331530       -6.8937051222        8.4068964307  MEMB      93              0.0000000000
      9892        93  POPC      C28            26.5212690597       -8.9109361935        7.7461081674  MEMB      93              0.0000000000
      9893        93  POPC      H8R            25.9614653555       -9.8513504500        7.9373206075  MEMB      93              0.0000000000
      9894        93  POPC      H8S            27.5143862798       -9.1208814405        8.1977302074  MEMB      93              0.0000000000
      9895        93  POPC      C29            26.5136183439       -8.5648582981        6.2500020781  MEMB      93              0.0000000000
      9896        93  POPC      H91            25.5385836090       -8.3368678172        5.7946691098  MEMB      93              0.0000000000
      9897        93  POPC      C210           27.5692206129       -8.4543309100        5.3995425905  MEMB      93              0.0000000000
      9898        93  POPC      H101           27.4232232452       -8.2082919316        4.3373992067  MEMB      93              0.0000000000
      9899        93  POPC      C211           29.0237119379       -8.6479596309        5.7439825957  MEMB      93              0.0000000000
      9900        93  POPC      H11R           29.1451795258       -8.8152582053        6.8355761490  MEMB      93              0.0000000000
      9901        93  POPC      H11S           29.5333977404       -7.6745859426        5.5794076304  MEMB      93              0.0000000000
      9902        93  POPC      C212           29.8405772972       -9.7512922735        4.9987494923  MEMB      93              0.0000000000
      9903        93  POPC      H12R           29.2940977356      -10.7133615000        5.0992690437  MEMB      93              0.0000000000
      9904        93  POPC      H12S           30.7907304488       -9.8697697001        5.5622142712  MEMB      93              0.0000000000
      9905        93  POPC      C213           30.1653829369       -9.4134272630        3.5805435471  MEMB      93              0.0000000000
      9906        93  POPC      H13R           30.7442452460       -8.4653579554        3.5604433409  MEMB      93              0.0000000000
      9907        93  POPC      H13S           29.3137027978       -9.0240203978        2.9827773850  MEMB      93              0.0000000000
      9908        93  POPC      C214           31.1374830339      -10.3541719027        2.8580553695  MEMB      93              0.0000000000
      9909        93  POPC      H14R           32.0617145929      -10.5724923701        3.4346422276  MEMB      93              0.0000000000
      9910        93  POPC      H14S           31.4870612957       -9.7684416351        1.9811083470  MEMB      93              0.0000000000
      9911        93  POPC      C215           30.5096307935      -11.7010435860        2.4961774374  MEMB      93              0.0000000000
      9912        93  POPC      H15R           30.2085013848      -12.1161470061        3.4817382638  MEMB      93              0.0000000000
      9913        93  POPC      H15S           31.3284421309      -12.3234774932        2.0761238537  MEMB      93              0.0000000000
      9914        93  POPC      C216           29.2648814728      -11.6567574496        1.6069336161  MEMB      93              0.0000000000
      9915        93  POPC      H16R           29.4597126769      -11.1255646558        0.6507978217  MEMB      93              0.0000000000
      9916        93  POPC      H16S           28.5749411098      -10.8556513105        1.9483010315  MEMB      93              0.0000000000
      9917        93  POPC      C217           28.6026446685      -12.9565311601        1.3136406394  MEMB      93              0.0000000000
      9918        93  POPC      H17R           27.9504748301      -12.8293103859        0.4232418898  MEMB      93              0.0000000000
      9919        93  POPC      H17S           27.8164454287      -13.1285450531        2.0795528849  MEMB      93              0.0000000000
      9920        93  POPC      C218           29.3534650094      -14.2362190167        1.2552677009  MEMB      93              0.0000000000
      9921        93  POPC      H18R           29.9705958935      -14.2666705708        0.3319350473  MEMB      93              0.0000000000
      9922        93  POPC      H18S           28.5056564007      -14.9383615941        1.1051442872  MEMB      93              0.0000000000
      9923        93  POPC      H18T           29.9705381487      -14.3834469083        2.1673350095  MEMB      93              0.0000000000
      9924        93  POPC      C33            28.0050026914       -8.7544019695       13.3976519089  MEMB      93              0.0000000000
      9925        93  POPC      H3X            29.0484470503       -8.3761995923       13.3475745461  MEMB      93              0.0000000000
      9926        93  POPC      H3Y            27.5090735684       -7.9997263321       12.7504735573  MEMB      93              0.0000000000
      9927        93  POPC      C34            27.9801163013      -10.1137271214       12.7249954941  MEMB      93              0.0000000000
      9928        93  POPC      H4X            26.9045062403      -10.3856046104       12.6661169240  MEMB      93              0.0000000000
      9929        93  POPC      H4Y            28.3726073038      -10.8480409630       13.4605600843  MEMB      93              0.0000000000
      9930        93  POPC      C35            28.5153766112      -10.1675228060       11.3043308681  MEMB      93              0.0000000000
      9931        93  POPC      H5X            29.6239909575      -10.2372544244       11.2835265521  MEMB      93              0.0000000000
      9932        93  POPC      H5Y            28.2501064651       -9.2147635818       10.7981659055  MEMB      93              0.0000000000
      9933        93  POPC      C36            28.0926393065      -11.5177014476       10.6585481607  MEMB      93              0.0000000000
      9934        93  POPC      H6X            27.0706001765      -11.5098857865       10.2230074327  MEMB      93              0.0000000000
      9935        93  POPC      H6Y            28.1194671721      -12.2893683403       11.4573793548  MEMB      93              0.0000000000
      9936        93  POPC      C37            29.0998120882      -12.0656713284        9.5833801176  MEMB      93              0.0000000000
      9937        93  POPC      H7X            30.1240394817      -12.0011136745       10.0089528167  MEMB      93              0.0000000000
      9938        93  POPC      H7Y            29.1056005618      -11.4683962104        8.6466039758  MEMB      93              0.0000000000
      9939        93  POPC      C38            29.0837572378      -13.6255045668        9.2513817595  MEMB      93              0.0000000000
      9940        93  POPC      H8X            29.2045385027      -14.2860203131       10.1365102366  MEMB      93              0.0000000000
      9941        93  POPC      H8Y            29.9473189181      -13.7785613445        8.5693585159  MEMB      93              0.0000000000
      9942        93  POPC      C39            27.9083610453      -14.2155121947        8.4095520759  MEMB      93              0.0000000000
      9943        93  POPC      H9X            27.0067207984      -14.2857994417        9.0548628909  MEMB      93              0.0000000000
      9944        93  POPC      H9Y            28.2401532547      -15.2624756038        8.2419140360  MEMB      93              0.0000000000
      9945        93  POPC      C310           27.5738340846      -13.4482739280        7.1078893768  MEMB      93              0.0000000000
      9946        93  POPC      H10X           28.4357972161      -13.1776162210        6.4612942422  MEMB      93              0.0000000000
      9947        93  POPC      H10Y           27.0627927781      -12.5105320513        7.4141538689  MEMB      93              0.0000000000
      9948        93  POPC      C311           26.7981275756      -14.3153241868        6.1253410774  MEMB      93              0.0000000000
      9949        93  POPC      H11X           25.9661254547      -14.7921247262        6.6863715012  MEMB      93              0.0000000000
      9950        93  POPC      H11Y           27.4777624784      -15.1215988191        5.7755720659  MEMB      93              0.0000000000
      9951        93  POPC      C312           26.1464898108      -13.5599736394        4.9325823468  MEMB      93              0.0000000000
      9952        93  POPC      H12X           26.9712758625      -13.0824193478        4.3616257850  MEMB      93              0.0000000000
      9953        93  POPC      H12Y           25.6130068033      -12.7004023193        5.3917707436  MEMB      93              0.0000000000
      9954        93  POPC      C313           25.3054046819      -14.3844996583        4.0884878487  MEMB      93              0.0000000000
      9955        93  POPC      H13X           24.5107947801      -14.6477351713        4.8189829036  MEMB      93              0.0000000000
      9956        93  POPC      H13Y           25.6796700177      -15.3893011235        3.7975914601  MEMB      93              0.0000000000
      9957        93  POPC      C314           24.5958334695      -13.6732553014        2.9262004145  MEMB      93              0.0000000000
      9958        93  POPC      H14X           23.7218760063      -14.1776297692        2.4613068823  MEMB      93              0.0000000000
      9959        93  POPC      H14Y           25.3733816250      -13.5767633447        2.1385281398  MEMB      93              0.0000000000
      9960        93  POPC      C315           24.0298784217      -12.3897409511        3.2981899745  MEMB      93              0.0000000000
      9961        93  POPC      H15X           24.9286896446      -11.7455705203        3.4054458929  MEMB      93              0.0000000000
      9962        93  POPC      H15Y           23.3087253129      -12.4135734939        4.1429932572  MEMB      93              0.0000000000
      9963        93  POPC      C316           23.2647227598      -11.6436815602        2.1242249632  MEMB      93              0.0000000000
      9964        93  POPC      H16X           22.9729856883      -10.6357716708        2.4893663218  MEMB      93              0.0000000000
      9965        93  POPC      H16Y           22.2794410025      -12.1520929497        2.0531034872  MEMB      93              0.0000000000
      9966        93  POPC      H16Z           23.6715863639      -11.6783084931        1.0909855115  MEMB      93              0.0000000000
      9967        94  POPE      N             -15.5701527387       41.6344638850       20.7357483837  MEMB      94              0.0000000000
      9968        94  POPE      HN1           -14.5899839860       41.9625974628       20.8506295801  MEMB      94              0.0000000000
      9969        94  POPE      HN2           -16.1454012730       42.3442487793       20.2388635457  MEMB      94              0.0000000000
      9970        94  POPE      HN3           -15.9368029797       41.5368764300       21.7040686985  MEMB      94              0.0000000000
      9971        94  POPE      C12           -15.4655484187       40.3117657542       20.0166154735  MEMB      94              0.0000000000
      9972        94  POPE      H12A          -14.7022704974       39.7026240670       20.5464024060  MEMB      94              0.0000000000
      9973        94  POPE      H12B          -15.2308446457       40.3887476750       18.9334216301  MEMB      94              0.0000000000
      9974        94  POPE      C11           -16.7821916676       39.5229497401       20.0216108353  MEMB      94              0.0000000000
      9975        94  POPE      H11A          -16.9217532279       38.9875081660       20.9850142132  MEMB      94              0.0000000000
      9976        94  POPE      H11B          -16.7422030802       38.6532932439       19.3313792675  MEMB      94              0.0000000000
      9977        94  POPE      P             -17.9853222537       40.8794076817       18.2162388200  MEMB      94              0.0000000000
      9978        94  POPE      O13           -19.2948650477       41.4298882523       17.8696151181  MEMB      94              0.0000000000
      9979        94  POPE      O14           -17.4528437221       39.9201447374       17.2547747582  MEMB      94              0.0000000000
      9980        94  POPE      O11           -16.8947131361       42.0276906890       18.2174396084  MEMB      94              0.0000000000
      9981        94  POPE      O12           -17.8678878151       40.4050988597       19.6679569768  MEMB      94              0.0000000000
      9982        94  POPE      C1            -17.3022311002       43.4250319668       18.2642307159  MEMB      94              0.0000000000
      9983        94  POPE      HA            -16.8721550035       43.7662202617       19.2301220494  MEMB      94              0.0000000000
      9984        94  POPE      HB            -18.3936392304       43.6251821161       18.3198112340  MEMB      94              0.0000000000
      9985        94  POPE      C2            -16.6761556154       44.3002367589       17.0947683259  MEMB      94              0.0000000000
      9986        94  POPE      HS            -17.0131767979       45.3447421672       17.2672388410  MEMB      94              0.0000000000
      9987        94  POPE      O21           -16.9538453394       43.8123041870       15.7468694606  MEMB      94              0.0000000000
      9988        94  POPE      C21           -18.2271724142       43.6723198034       15.4417452911  MEMB      94              0.0000000000
      9989        94  POPE      O22           -19.1838726624       44.2465279215       15.9596250353  MEMB      94              0.0000000000
      9990        94  POPE      C22           -18.3250720470       42.6325678173       14.3712629369  MEMB      94              0.0000000000
      9991        94  POPE      H2R           -17.6635981037       41.7549093180       14.5340177656  MEMB      94              0.0000000000
      9992        94  POPE      H2S           -18.0657050559       43.1557959807       13.4261270859  MEMB      94              0.0000000000
      9993        94  POPE      C3            -15.1705778181       44.4823777706       17.1603987704  MEMB      94              0.0000000000
      9994        94  POPE      HX            -14.9708328010       45.2768925626       17.9108448896  MEMB      94              0.0000000000
      9995        94  POPE      HY            -14.8321572390       44.9209356266       16.1973517429  MEMB      94              0.0000000000
      9996        94  POPE      O31           -14.4826716162       43.2454679894       17.4738029367  MEMB      94              0.0000000000
      9997        94  POPE      C31           -13.4776953892       42.9091899015       16.6639574676  MEMB      94              0.0000000000
      9998        94  POPE      O32           -13.0621419865       43.5509544910       15.6667563110  MEMB      94              0.0000000000
      9999        94  POPE      C32           -12.9171442998       41.5552735420       17.0256380456  MEMB      94              0.0000000000
     10000        94  POPE      H2X           -13.4741957965       41.1390869974       17.8921274145  MEMB      94              0.0000000000
     10001        94  POPE      H2Y           -11.8330738980       41.7055362238       17.2167752820  MEMB      94              0.0000000000
     10002        94  POPE      C23           -19.7599644218       42.2208044452       14.2205666424  MEMB      94              0.0000000000
     10003        94  POPE      H3R           -20.4292714794       43.0355123233       13.8704236326  MEMB      94              0.0000000000
     10004        94  POPE      H3S           -20.2344476146       41.8412054163       15.1506694125  MEMB      94              0.0000000000
     10005        94  POPE      C24           -20.0591244732       41.0127238476       13.2717837483  MEMB      94              0.0000000000
     10006        94  POPE      H4R           -19.6374447030       41.3275111265       12.2933073274  MEMB      94              0.0000000000
     10007        94  POPE      H4S           -21.1386764252       40.7750292205       13.1604748611  MEMB      94              0.0000000000
     10008        94  POPE      C25           -19.3747247231       39.7318673009       13.7491621715  MEMB      94              0.0000000000
     10009        94  POPE      H5R           -19.7482539973       39.4599582788       14.7595391997  MEMB      94              0.0000000000
     10010        94  POPE      H5S           -18.2985614542       39.7962989848       14.0175689858  MEMB      94              0.0000000000
     10011        94  POPE      C26           -19.6595271601       38.4871323736       12.9030533804  MEMB      94              0.0000000000
     10012        94  POPE      H6R           -20.5779922391       38.5533309111       12.2814743452  MEMB      94              0.0000000000
     10013        94  POPE      H6S           -19.6947847957       37.6076691959       13.5810080475  MEMB      94              0.0000000000
     10014        94  POPE      C27           -18.5738355263       38.1451647146       11.8873025123  MEMB      94              0.0000000000
     10015        94  POPE      H7R           -18.7338649664       37.1536524337       11.4123137610  MEMB      94              0.0000000000
     10016        94  POPE      H7S           -17.5905876908       38.1593397714       12.4043558769  MEMB      94              0.0000000000
     10017        94  POPE      C28           -18.4905500578       39.2550618772       10.7270702551  MEMB      94              0.0000000000
     10018        94  POPE      H8R           -19.5352642455       39.5902790783       10.5523635916  MEMB      94              0.0000000000
     10019        94  POPE      H8S           -18.4026252007       38.6685657911        9.7875954515  MEMB      94              0.0000000000
     10020        94  POPE      C29           -17.3860896853       40.3159124133       10.7971437897  MEMB      94              0.0000000000
     10021        94  POPE      H91           -16.5167860494       40.0099485082       11.3977247463  MEMB      94              0.0000000000
     10022        94  POPE      C210          -17.3768931056       41.6244920520       10.3960749425  MEMB      94              0.0000000000
     10023        94  POPE      H101          -16.4323684719       42.1810117315       10.3057459538  MEMB      94              0.0000000000
     10024        94  POPE      C211          -18.5261138971       42.4597154796        9.7608781027  MEMB      94              0.0000000000
     10025        94  POPE      H11R          -18.7697975236       43.3187992731       10.4218730055  MEMB      94              0.0000000000
     10026        94  POPE      H11S          -19.4077944086       41.7878157234        9.6866414819  MEMB      94              0.0000000000
     10027        94  POPE      C212          -18.3077819517       42.8453988988        8.2348007050  MEMB      94              0.0000000000
     10028        94  POPE      H12R          -17.4915248920       43.5910468404        8.1250079656  MEMB      94              0.0000000000
     10029        94  POPE      H12S          -19.2318102938       43.4138893694        7.9954032998  MEMB      94              0.0000000000
     10030        94  POPE      C213          -18.0694218335       41.7435970720        7.2860140785  MEMB      94              0.0000000000
     10031        94  POPE      H13R          -18.7315067006       40.8799505435        7.5097983035  MEMB      94              0.0000000000
     10032        94  POPE      H13S          -16.9816597763       41.5472743534        7.3980502015  MEMB      94              0.0000000000
     10033        94  POPE      C214          -18.3539461861       42.1699665318        5.7825909421  MEMB      94              0.0000000000
     10034        94  POPE      H14R          -17.6399862070       42.9504509866        5.4428465841  MEMB      94              0.0000000000
     10035        94  POPE      H14S          -19.4011063812       42.5332846238        5.8585945501  MEMB      94              0.0000000000
     10036        94  POPE      C215          -18.4502487094       41.0041657475        4.8377884620  MEMB      94              0.0000000000
     10037        94  POPE      H15R          -19.2321519791       40.3517701239        5.2820045474  MEMB      94              0.0000000000
     10038        94  POPE      H15S          -17.5247638502       40.4018876415        4.7150695625  MEMB      94              0.0000000000
     10039        94  POPE      C216          -19.0622044091       41.3782234793        3.4479075307  MEMB      94              0.0000000000
     10040        94  POPE      H16R          -18.5545006378       42.2121684668        2.9177249436  MEMB      94              0.0000000000
     10041        94  POPE      H16S          -20.0133093129       41.8716260535        3.7416323770  MEMB      94              0.0000000000
     10042        94  POPE      C217          -19.5199596284       40.2959930197        2.4611781450  MEMB      94              0.0000000000
     10043        94  POPE      H17R          -19.8509610962       40.7897559001        1.5225844410  MEMB      94              0.0000000000
     10044        94  POPE      H17S          -20.3669676239       39.7387823336        2.9155069139  MEMB      94              0.0000000000
     10045        94  POPE      C218          -18.3283125267       39.3188291503        2.2546486645  MEMB      94              0.0000000000
     10046        94  POPE      H18R          -18.0697052233       38.8048074948        3.2050307916  MEMB      94              0.0000000000
     10047        94  POPE      H18S          -17.4355670924       39.9172203405        1.9731271107  MEMB      94              0.0000000000
     10048        94  POPE      H18T          -18.7036436062       38.6058913009        1.4896859540  MEMB      94              0.0000000000
     10049        94  POPE      C33           -13.0006782988       40.5982206467       15.8457425849  MEMB      94              0.0000000000
     10050        94  POPE      H3X           -12.4669611865       39.6240885766       15.8226372983  MEMB      94              0.0000000000
     10051        94  POPE      H3Y           -12.4881996296       41.1220008076       15.0106732720  MEMB      94              0.0000000000
     10052        94  POPE      C34           -14.4263222770       40.3633511330       15.3506242873  MEMB      94              0.0000000000
     10053        94  POPE      H4X           -14.9720184231       41.2914963544       15.0766113175  MEMB      94              0.0000000000
     10054        94  POPE      H4Y           -14.9463032307       39.9912871362       16.2591994973  MEMB      94              0.0000000000
     10055        94  POPE      C35           -14.4804812582       39.1964896267       14.3608051174  MEMB      94              0.0000000000
     10056        94  POPE      H5X           -15.5208976715       38.8444263865       14.5278565296  MEMB      94              0.0000000000
     10057        94  POPE      H5Y           -13.8498213582       38.3220229157       14.6289420504  MEMB      94              0.0000000000
     10058        94  POPE      C36           -14.2391758982       39.4983463080       12.8200539901  MEMB      94              0.0000000000
     10059        94  POPE      H6X           -13.1726972946       39.6991913409       12.5821333707  MEMB      94              0.0000000000
     10060        94  POPE      H6Y           -14.9319798723       40.3091842388       12.5087899901  MEMB      94              0.0000000000
     10061        94  POPE      C37           -14.4262193854       38.2877069883       11.8739946922  MEMB      94              0.0000000000
     10062        94  POPE      H7X           -15.5362516447       38.2642298230       11.8340181280  MEMB      94              0.0000000000
     10063        94  POPE      H7Y           -14.0775994982       37.3077799504       12.2645435183  MEMB      94              0.0000000000
     10064        94  POPE      C38           -13.9872321871       38.4128486405       10.3757593113  MEMB      94              0.0000000000
     10065        94  POPE      H8X           -12.8796971177       38.3461622858       10.3188387542  MEMB      94              0.0000000000
     10066        94  POPE      H8Y           -14.2949360534       39.4458599478       10.1064518977  MEMB      94              0.0000000000
     10067        94  POPE      C39           -14.5111621565       37.2576314202        9.4658412528  MEMB      94              0.0000000000
     10068        94  POPE      H9X           -15.5985434653       37.2869916022        9.6918085423  MEMB      94              0.0000000000
     10069        94  POPE      H9Y           -14.1512839612       36.2384086369        9.7227334342  MEMB      94              0.0000000000
     10070        94  POPE      C310          -14.3450911342       37.6426749546        8.0329283991  MEMB      94              0.0000000000
     10071        94  POPE      H10X          -14.6370855456       36.7392269938        7.4560038802  MEMB      94              0.0000000000
     10072        94  POPE      H10Y          -13.3419264329       37.8979080802        7.6293962063  MEMB      94              0.0000000000
     10073        94  POPE      C311          -15.3045582859       38.6976256258        7.5131628591  MEMB      94              0.0000000000
     10074        94  POPE      H11X          -15.2937361840       39.7068926396        7.9774729418  MEMB      94              0.0000000000
     10075        94  POPE      H11Y          -16.3294609763       38.3460063279        7.7586406937  MEMB      94              0.0000000000
     10076        94  POPE      C312          -15.1579345024       38.9974418335        5.9924505553  MEMB      94              0.0000000000
     10077        94  POPE      H12X          -14.0971387035       39.3264145577        6.0209152148  MEMB      94              0.0000000000
     10078        94  POPE      H12Y          -15.8637848963       39.8288952404        5.7808344032  MEMB      94              0.0000000000
     10079        94  POPE      C313          -15.3572636409       37.7496815776        5.0894566226  MEMB      94              0.0000000000
     10080        94  POPE      H13X          -16.4518832635       37.5600299602        5.0767677456  MEMB      94              0.0000000000
     10081        94  POPE      H13Y          -14.7379508409       36.8698181839        5.3662478736  MEMB      94              0.0000000000
     10082        94  POPE      C314          -15.1519158092       38.2061387182        3.6283672632  MEMB      94              0.0000000000
     10083        94  POPE      H14X          -15.6152651420       39.2114056036        3.5331479753  MEMB      94              0.0000000000
     10084        94  POPE      H14Y          -15.6687607920       37.4958617783        2.9481467425  MEMB      94              0.0000000000
     10085        94  POPE      C315          -13.7461536803       38.3364203138        3.1212446069  MEMB      94              0.0000000000
     10086        94  POPE      H15X          -13.1800732242       37.3901477663        3.2570462714  MEMB      94              0.0000000000
     10087        94  POPE      H15Y          -13.1380516222       39.0633722459        3.7009638591  MEMB      94              0.0000000000
     10088        94  POPE      C316          -13.5423594703       38.6648925470        1.5846154488  MEMB      94              0.0000000000
     10089        94  POPE      H16X          -13.4028894193       39.7636077088        1.4968996925  MEMB      94              0.0000000000
     10090        94  POPE      H16Y          -14.3509576071       38.3520858296        0.8898897651  MEMB      94              0.0000000000
     10091        94  POPE      H16Z          -12.5724584223       38.2606909058        1.2237358382  MEMB      94              0.0000000000
     10092        95  POPE      N              33.6088640242       23.6789907700       20.6005672524  MEMB      95              0.0000000000
     10093        95  POPE      HN1            33.6489868949       22.6974368843       20.9419499725  MEMB      95              0.0000000000
     10094        95  POPE      HN2            32.9854414671       24.2127691217       21.2393356386  MEMB      95              0.0000000000
     10095        95  POPE      HN3            33.2067827929       23.7458654907       19.6437713067  MEMB      95              0.0000000000
     10096        95  POPE      C12            34.9798301083       24.3155298342       20.5587162014  MEMB      95              0.0000000000
     10097        95  POPE      H12A           35.5777037848       23.6633265351       19.8867797118  MEMB      95              0.0000000000
     10098        95  POPE      H12B           35.3622441122       24.1221031468       21.5837364632  MEMB      95              0.0000000000
     10099        95  POPE      C11            35.0801269344       25.7444534237       20.0267656521  MEMB      95              0.0000000000
     10100        95  POPE      H11A           36.0614590449       26.2276267966       19.8322105714  MEMB      95              0.0000000000
     10101        95  POPE      H11B           34.5974656691       26.2896283319       20.8658982256  MEMB      95              0.0000000000
     10102        95  POPE      P              33.8409457029       27.2409434460       18.2580466366  MEMB      95              0.0000000000
     10103        95  POPE      O13            34.7579189392       28.2727582499       18.7543195622  MEMB      95              0.0000000000
     10104        95  POPE      O14            32.3588287413       27.4232042958       18.3754056080  MEMB      95              0.0000000000
     10105        95  POPE      O11            34.1660456824       27.1552430758       16.6647127919  MEMB      95              0.0000000000
     10106        95  POPE      O12            34.3811654725       25.7786785045       18.7614662971  MEMB      95              0.0000000000
     10107        95  POPE      C1             34.4045522510       25.8864498394       16.0032055471  MEMB      95              0.0000000000
     10108        95  POPE      HA             34.0663824671       25.8548625472       14.9453943081  MEMB      95              0.0000000000
     10109        95  POPE      HB             33.9426871628       24.9729182052       16.4350174223  MEMB      95              0.0000000000
     10110        95  POPE      C2             35.9641106142       25.6525396278       16.0173689647  MEMB      95              0.0000000000
     10111        95  POPE      HS             36.2946251797       25.8990320804       17.0490291726  MEMB      95              0.0000000000
     10112        95  POPE      O21            36.6836513892       26.3330882257       15.0453942813  MEMB      95              0.0000000000
     10113        95  POPE      C21            36.9110965302       27.5977763825       15.1737589068  MEMB      95              0.0000000000
     10114        95  POPE      O22            36.5649822710       28.3180326398       16.0938137422  MEMB      95              0.0000000000
     10115        95  POPE      C22            37.7906516743       28.1802683660       14.0927464292  MEMB      95              0.0000000000
     10116        95  POPE      H2R            38.4949378035       27.4204557451       13.6915148473  MEMB      95              0.0000000000
     10117        95  POPE      H2S            38.2326098340       29.1487643439       14.4105660019  MEMB      95              0.0000000000
     10118        95  POPE      C3             36.2426439500       24.1279178027       15.7798722102  MEMB      95              0.0000000000
     10119        95  POPE      HX             35.6433275994       23.5230740340       16.4935282644  MEMB      95              0.0000000000
     10120        95  POPE      HY             37.3173553238       23.9374631565       15.9873416116  MEMB      95              0.0000000000
     10121        95  POPE      O31            36.0601826069       23.7395262370       14.3726725022  MEMB      95              0.0000000000
     10122        95  POPE      C31            34.9351831946       22.9998268808       14.0757154058  MEMB      95              0.0000000000
     10123        95  POPE      O32            34.0873598136       22.6576762473       14.9254119842  MEMB      95              0.0000000000
     10124        95  POPE      C32            35.0813965306       22.4147868222       12.6551940798  MEMB      95              0.0000000000
     10125        95  POPE      H2X            34.2217909504       21.7404695592       12.4534630840  MEMB      95              0.0000000000
     10126        95  POPE      H2Y            36.0538971458       21.9042032517       12.4882565922  MEMB      95              0.0000000000
     10127        95  POPE      C23            36.7647246026       28.4438452877       12.9125118284  MEMB      95              0.0000000000
     10128        95  POPE      H3R            36.0446123203       29.2475279214       13.1768101713  MEMB      95              0.0000000000
     10129        95  POPE      H3S            36.2064549306       27.5577672397       12.5416725643  MEMB      95              0.0000000000
     10130        95  POPE      C24            37.3832641822       29.0060382551       11.6008787261  MEMB      95              0.0000000000
     10131        95  POPE      H4R            38.1506416792       28.2504402534       11.3278864244  MEMB      95              0.0000000000
     10132        95  POPE      H4S            37.9049089250       29.9764109391       11.7443533493  MEMB      95              0.0000000000
     10133        95  POPE      C25            36.5085011581       29.1589870539       10.3909895437  MEMB      95              0.0000000000
     10134        95  POPE      H5R            35.7887292798       28.3157187712       10.4627393501  MEMB      95              0.0000000000
     10135        95  POPE      H5S            37.2750542237       29.1027777314        9.5887685037  MEMB      95              0.0000000000
     10136        95  POPE      C26            35.6352609794       30.4323705411       10.2220239541  MEMB      95              0.0000000000
     10137        95  POPE      H6R            36.1358504175       31.4149955421       10.0871958020  MEMB      95              0.0000000000
     10138        95  POPE      H6S            35.1076812366       30.5064093959       11.1969599090  MEMB      95              0.0000000000
     10139        95  POPE      C27            34.6367036254       30.3319094753        9.1031775336  MEMB      95              0.0000000000
     10140        95  POPE      H7R            35.0404031172       30.6860576635        8.1305896209  MEMB      95              0.0000000000
     10141        95  POPE      H7S            33.9509115633       31.1355070870        9.4470394672  MEMB      95              0.0000000000
     10142        95  POPE      C28            33.9053553079       29.0251233673        8.8408619491  MEMB      95              0.0000000000
     10143        95  POPE      H8R            33.4237755765       28.6609683577        9.7734888943  MEMB      95              0.0000000000
     10144        95  POPE      H8S            34.5714127865       28.1944555610        8.5235614424  MEMB      95              0.0000000000
     10145        95  POPE      C29            32.9243231195       29.1512698488        7.7630444718  MEMB      95              0.0000000000
     10146        95  POPE      H91            31.8712574901       29.2649066492        8.0599274908  MEMB      95              0.0000000000
     10147        95  POPE      C210           33.2805454313       29.1042750693        6.4730019200  MEMB      95              0.0000000000
     10148        95  POPE      H101           32.4627017718       29.1913280720        5.7425546198  MEMB      95              0.0000000000
     10149        95  POPE      C211           34.6805956407       28.8767773938        5.9607669857  MEMB      95              0.0000000000
     10150        95  POPE      H11R           35.4822440926       28.9627606490        6.7251544204  MEMB      95              0.0000000000
     10151        95  POPE      H11S           34.8411535415       29.6301256128        5.1601366819  MEMB      95              0.0000000000
     10152        95  POPE      C212           34.9557437444       27.4128229506        5.5236619284  MEMB      95              0.0000000000
     10153        95  POPE      H12R           34.0466464781       27.0389760581        5.0058761168  MEMB      95              0.0000000000
     10154        95  POPE      H12S           35.1232567125       26.7965366158        6.4327557471  MEMB      95              0.0000000000
     10155        95  POPE      C213           36.0468621693       27.1299757872        4.4237007146  MEMB      95              0.0000000000
     10156        95  POPE      H13R           37.0525845223       27.3836925600        4.8217846114  MEMB      95              0.0000000000
     10157        95  POPE      H13S           35.8587355505       27.8272759352        3.5794833294  MEMB      95              0.0000000000
     10158        95  POPE      C214           35.8835930474       25.8149259389        3.7715582540  MEMB      95              0.0000000000
     10159        95  POPE      H14R           34.8334617655       25.6683721413        3.4397939239  MEMB      95              0.0000000000
     10160        95  POPE      H14S           36.2333578386       24.9770549114        4.4118368762  MEMB      95              0.0000000000
     10161        95  POPE      C215           36.6809138721       25.5707126858        2.4544017734  MEMB      95              0.0000000000
     10162        95  POPE      H15R           36.5447876340       24.5174216337        2.1282595557  MEMB      95              0.0000000000
     10163        95  POPE      H15S           37.7403122525       25.6436269285        2.7810193852  MEMB      95              0.0000000000
     10164        95  POPE      C216           36.3008041400       26.5700645018        1.3799644567  MEMB      95              0.0000000000
     10165        95  POPE      H16R           37.0017651172       26.3851656809        0.5380701001  MEMB      95              0.0000000000
     10166        95  POPE      H16S           36.5930904908       27.6013063266        1.6722488984  MEMB      95              0.0000000000
     10167        95  POPE      C217           34.8493012032       26.5546827568        0.8794800812  MEMB      95              0.0000000000
     10168        95  POPE      H17R           34.9943710355       27.2439429017        0.0202963354  MEMB      95              0.0000000000
     10169        95  POPE      H17S           34.0561914801       26.9932502076        1.5220973641  MEMB      95              0.0000000000
     10170        95  POPE      C218           34.3760384174       25.2029978932        0.4925582339  MEMB      95              0.0000000000
     10171        95  POPE      H18R           33.6123102245       25.3467611891       -0.3014009419  MEMB      95              0.0000000000
     10172        95  POPE      H18S           34.1499957691       24.5240710970        1.3424322214  MEMB      95              0.0000000000
     10173        95  POPE      H18T           35.2017625337       24.7257932374       -0.0773331851  MEMB      95              0.0000000000
     10174        95  POPE      C33            34.9180873357       23.5549973689       11.6095247189  MEMB      95              0.0000000000
     10175        95  POPE      H3X            34.9160910029       23.0932653594       10.5990193018  MEMB      95              0.0000000000
     10176        95  POPE      H3Y            35.7379491921       24.2911943808       11.7515161215  MEMB      95              0.0000000000
     10177        95  POPE      C34            33.5769288644       24.4267420550       11.7664087540  MEMB      95              0.0000000000
     10178        95  POPE      H4X            33.5887354261       25.0305380682       12.6989381523  MEMB      95              0.0000000000
     10179        95  POPE      H4Y            32.6904420921       23.7574993005       11.7904182052  MEMB      95              0.0000000000
     10180        95  POPE      C35            33.5871849818       25.3610183214       10.6181147418  MEMB      95              0.0000000000
     10181        95  POPE      H5X            33.7476716161       24.8720322085        9.6335050435  MEMB      95              0.0000000000
     10182        95  POPE      H5Y            34.5237799376       25.9518229424       10.5283333430  MEMB      95              0.0000000000
     10183        95  POPE      C36            32.3896559215       26.2818480661       10.5387117554  MEMB      95              0.0000000000
     10184        95  POPE      H6X            32.5504354693       26.9510906506        9.6665961213  MEMB      95              0.0000000000
     10185        95  POPE      H6Y            32.3057726421       26.8329782065       11.4997214628  MEMB      95              0.0000000000
     10186        95  POPE      C37            31.0665166821       25.5005611575       10.3365109458  MEMB      95              0.0000000000
     10187        95  POPE      H7X            30.2010700065       26.1882713198       10.2252555463  MEMB      95              0.0000000000
     10188        95  POPE      H7Y            30.9906020678       24.8302047356       11.2192227704  MEMB      95              0.0000000000
     10189        95  POPE      C38            30.9211367137       24.7094691912        9.0602497573  MEMB      95              0.0000000000
     10190        95  POPE      H8X            29.8379438443       24.4698623612        9.1202721752  MEMB      95              0.0000000000
     10191        95  POPE      H8Y            31.4604874729       23.7381966026        9.0530809720  MEMB      95              0.0000000000
     10192        95  POPE      C39            31.0668784633       25.5057966518        7.8171241599  MEMB      95              0.0000000000
     10193        95  POPE      H9X            31.9429964086       26.1887237981        7.7984405566  MEMB      95              0.0000000000
     10194        95  POPE      H9Y            30.2754812489       26.2853139926        7.8362059103  MEMB      95              0.0000000000
     10195        95  POPE      C310           30.9392211772       24.6425378558        6.5268519713  MEMB      95              0.0000000000
     10196        95  POPE      H10X           30.1985460811       23.8241630319        6.6532792674  MEMB      95              0.0000000000
     10197        95  POPE      H10Y           31.8026300515       23.9645340898        6.3560978201  MEMB      95              0.0000000000
     10198        95  POPE      C311           30.6264153573       25.2917290684        5.1940875762  MEMB      95              0.0000000000
     10199        95  POPE      H11X           30.4616927970       24.4693785386        4.4654395834  MEMB      95              0.0000000000
     10200        95  POPE      H11Y           31.5657317501       25.8539910255        5.0047009200  MEMB      95              0.0000000000
     10201        95  POPE      C312           29.4653004841       26.2870876348        5.2310448984  MEMB      95              0.0000000000
     10202        95  POPE      H12X           29.7710823889       27.1846386375        5.8100270904  MEMB      95              0.0000000000
     10203        95  POPE      H12Y           28.6433120773       25.9081865225        5.8753204332  MEMB      95              0.0000000000
     10204        95  POPE      C313           28.7965879675       26.6938133565        3.9041193194  MEMB      95              0.0000000000
     10205        95  POPE      H13X           27.9562652930       27.3804683963        4.1422028723  MEMB      95              0.0000000000
     10206        95  POPE      H13Y           28.3341269842       25.8523416374        3.3452118512  MEMB      95              0.0000000000
     10207        95  POPE      C314           29.7766633870       27.3768785616        2.8915324589  MEMB      95              0.0000000000
     10208        95  POPE      H14X           30.6245154363       26.6989399907        2.6551704431  MEMB      95              0.0000000000
     10209        95  POPE      H14Y           30.1677820911       28.2538041797        3.4504144610  MEMB      95              0.0000000000
     10210        95  POPE      C315           29.3364287266       27.9341405851        1.5740386071  MEMB      95              0.0000000000
     10211        95  POPE      H15X           28.8125468572       28.8713089410        1.8596687195  MEMB      95              0.0000000000
     10212        95  POPE      H15Y           28.6806854874       27.3038391437        0.9360409170  MEMB      95              0.0000000000
     10213        95  POPE      C316           30.3935218498       28.4364536781        0.5641312424  MEMB      95              0.0000000000
     10214        95  POPE      H16X           31.0673896752       27.5901582678        0.3111342347  MEMB      95              0.0000000000
     10215        95  POPE      H16Y           31.1347089626       29.1775857633        0.9324855545  MEMB      95              0.0000000000
     10216        95  POPE      H16Z           29.8974541393       28.6750432293       -0.4009136268  MEMB      95              0.0000000000
     10217        96  POPC      N             -23.2404195457       44.3090757606       17.3114157962  MEMB      96              0.0000000000
     10218        96  POPC      C12           -22.8002801644       45.2179086696       18.4858452076  MEMB      96              0.0000000000
     10219        96  POPC      H12A          -23.0689679131       46.1960410061       18.1150835526  MEMB      96              0.0000000000
     10220        96  POPC      H12B          -21.7294970941       45.0923158256       18.5494819245  MEMB      96              0.0000000000
     10221        96  POPC      C13           -24.6759610530       44.5141133711       16.9841315896  MEMB      96              0.0000000000
     10222        96  POPC      H13A          -24.7866187962       45.5551249820       16.7187079387  MEMB      96              0.0000000000
     10223        96  POPC      H13B          -25.0089917554       43.7815856892       16.2637887793  MEMB      96              0.0000000000
     10224        96  POPC      H13C          -25.2013573235       44.3917576505       17.9197531528  MEMB      96              0.0000000000
     10225        96  POPC      C14           -22.4739298670       44.6592266039       16.0907461723  MEMB      96              0.0000000000
     10226        96  POPC      H14A          -22.9411840260       44.1145199421       15.2836723353  MEMB      96              0.0000000000
     10227        96  POPC      H14B          -22.6668546277       45.7105238517       15.9359746665  MEMB      96              0.0000000000
     10228        96  POPC      H14C          -21.4638009622       44.3530944085       16.3194877266  MEMB      96              0.0000000000
     10229        96  POPC      C15           -22.9259332998       42.8458768203       17.5812418688  MEMB      96              0.0000000000
     10230        96  POPC      H15A          -21.8892334556       42.7272339266       17.8597690577  MEMB      96              0.0000000000
     10231        96  POPC      H15B          -23.3012977696       42.2879984324       16.7360950293  MEMB      96              0.0000000000
     10232        96  POPC      H15C          -23.4681828974       42.5460591161       18.4658179562  MEMB      96              0.0000000000
     10233        96  POPC      C11           -23.2736754645       45.0128607243       19.9668826408  MEMB      96              0.0000000000
     10234        96  POPC      H11A          -22.8595465035       45.7632508951       20.6738003311  MEMB      96              0.0000000000
     10235        96  POPC      H11B          -22.8013055125       44.0610436279       20.2912775968  MEMB      96              0.0000000000
     10236        96  POPC      P             -25.6147752306       46.0465071531       20.5905720438  MEMB      96              0.0000000000
     10237        96  POPC      O13           -25.0919100168       46.7495625410       21.7616968081  MEMB      96              0.0000000000
     10238        96  POPC      O14           -26.9678232739       45.4564413464       20.8478065212  MEMB      96              0.0000000000
     10239        96  POPC      O12           -24.7010861797       44.8095045430       20.1106643182  MEMB      96              0.0000000000
     10240        96  POPC      O11           -25.4392847010       46.9250527675       19.2689970739  MEMB      96              0.0000000000
     10241        96  POPC      C1            -26.3078723963       48.0482434259       19.1661039809  MEMB      96              0.0000000000
     10242        96  POPC      HA            -25.7815891610       48.9995018320       19.3951332488  MEMB      96              0.0000000000
     10243        96  POPC      HB            -27.2256976932       48.0023299727       19.7904514876  MEMB      96              0.0000000000
     10244        96  POPC      C2            -26.6965230417       48.1885693100       17.7129843184  MEMB      96              0.0000000000
     10245        96  POPC      HS            -27.4561708589       48.9886615403       17.5821855591  MEMB      96              0.0000000000
     10246        96  POPC      O21           -27.0905610990       46.9528546789       17.0182791786  MEMB      96              0.0000000000
     10247        96  POPC      C21           -28.3834455571       46.6504048961       17.2108070730  MEMB      96              0.0000000000
     10248        96  POPC      O22           -29.0965580703       47.1378888597       18.0688190615  MEMB      96              0.0000000000
     10249        96  POPC      C22           -28.8212710906       45.6553967084       16.0951539884  MEMB      96              0.0000000000
     10250        96  POPC      H2R           -29.0290404461       46.1079582542       15.1020068110  MEMB      96              0.0000000000
     10251        96  POPC      H2S           -29.7290780317       45.0785121306       16.3733837363  MEMB      96              0.0000000000
     10252        96  POPC      C3            -25.4844866262       48.7690497190       16.8713034071  MEMB      96              0.0000000000
     10253        96  POPC      HX            -24.5507658111       48.3128109595       17.2641556923  MEMB      96              0.0000000000
     10254        96  POPC      HY            -25.3869103826       49.8747408902       16.9187013318  MEMB      96              0.0000000000
     10255        96  POPC      O31           -25.7643010534       48.3570215273       15.5500719540  MEMB      96              0.0000000000
     10256        96  POPC      C31           -24.7976424251       48.1609768953       14.6626742426  MEMB      96              0.0000000000
     10257        96  POPC      O32           -23.5866986151       48.2923186997       14.8374899943  MEMB      96              0.0000000000
     10258        96  POPC      C32           -25.4654212555       47.5959949654       13.4059623586  MEMB      96              0.0000000000
     10259        96  POPC      H2X           -26.1306820989       48.3377576466       12.9144982285  MEMB      96              0.0000000000
     10260        96  POPC      H2Y           -26.1384152332       46.7792376709       13.7440562651  MEMB      96              0.0000000000
     10261        96  POPC      C23           -27.7381987906       44.6054643667       15.7903121545  MEMB      96              0.0000000000
     10262        96  POPC      H3R           -27.7049795509       43.9889856432       16.7139849983  MEMB      96              0.0000000000
     10263        96  POPC      H3S           -26.7955981083       45.1803205207       15.6663546066  MEMB      96              0.0000000000
     10264        96  POPC      C24           -28.0636689885       43.6553698004       14.6110446082  MEMB      96              0.0000000000
     10265        96  POPC      H4R           -29.1296423237       43.8538889532       14.3689456300  MEMB      96              0.0000000000
     10266        96  POPC      H4S           -28.0506406983       42.5725998184       14.8595617703  MEMB      96              0.0000000000
     10267        96  POPC      C25           -27.1799004559       43.9113340824       13.2539123449  MEMB      96              0.0000000000
     10268        96  POPC      H5R           -26.2003497932       43.4071393174       13.3974018017  MEMB      96              0.0000000000
     10269        96  POPC      H5S           -26.9348853149       44.9917162549       13.1698720315  MEMB      96              0.0000000000
     10270        96  POPC      C26           -27.9213275837       43.4972381715       11.9770955129  MEMB      96              0.0000000000
     10271        96  POPC      H6R           -28.9398175492       43.9341432070       12.0552833872  MEMB      96              0.0000000000
     10272        96  POPC      H6S           -28.2356875786       42.4323468345       11.9382900514  MEMB      96              0.0000000000
     10273        96  POPC      C27           -27.0822748081       43.9476751822       10.7590070379  MEMB      96              0.0000000000
     10274        96  POPC      H7R           -26.5849560591       42.9912762711       10.4901274524  MEMB      96              0.0000000000
     10275        96  POPC      H7S           -26.2803682202       44.6679669574       11.0281665494  MEMB      96              0.0000000000
     10276        96  POPC      C28           -27.9444265384       44.3956916553        9.5160018402  MEMB      96              0.0000000000
     10277        96  POPC      H8R           -28.7500122537       43.6403060094        9.3945743670  MEMB      96              0.0000000000
     10278        96  POPC      H8S           -27.2050500203       44.3646570072        8.6873397698  MEMB      96              0.0000000000
     10279        96  POPC      C29           -28.4829073056       45.8068560884        9.7544597676  MEMB      96              0.0000000000
     10280        96  POPC      H91           -29.1088815273       45.9886735222       10.6405178491  MEMB      96              0.0000000000
     10281        96  POPC      C210          -28.5054253268       46.7935419979        8.8676400445  MEMB      96              0.0000000000
     10282        96  POPC      H101          -28.9965481415       47.7494199353        9.1023647405  MEMB      96              0.0000000000
     10283        96  POPC      C211          -27.9126760225       46.8423079279        7.4920750296  MEMB      96              0.0000000000
     10284        96  POPC      H11R          -28.5356904857       47.4343790421        6.7880682425  MEMB      96              0.0000000000
     10285        96  POPC      H11S          -27.8304454894       45.8412739707        7.0172168145  MEMB      96              0.0000000000
     10286        96  POPC      C212          -26.5712759556       47.6151463227        7.2984263978  MEMB      96              0.0000000000
     10287        96  POPC      H12R          -26.6651450709       48.6373997509        7.7232887396  MEMB      96              0.0000000000
     10288        96  POPC      H12S          -26.3773299491       47.6780719069        6.2062978875  MEMB      96              0.0000000000
     10289        96  POPC      C213          -25.3340622694       46.8539927953        7.9041802713  MEMB      96              0.0000000000
     10290        96  POPC      H13R          -25.2559861051       45.9161627751        7.3136717046  MEMB      96              0.0000000000
     10291        96  POPC      H13S          -25.4612821499       46.6654223401        8.9916442069  MEMB      96              0.0000000000
     10292        96  POPC      C214          -24.0072521666       47.6031096913        7.7323990923  MEMB      96              0.0000000000
     10293        96  POPC      H14R          -23.2923634206       46.9566613488        8.2849931120  MEMB      96              0.0000000000
     10294        96  POPC      H14S          -24.0568060520       48.4058568041        8.4988603635  MEMB      96              0.0000000000
     10295        96  POPC      C215          -23.3665387414       47.8849557892        6.3548976067  MEMB      96              0.0000000000
     10296        96  POPC      H15R          -23.3376980151       46.9317951858        5.7848325995  MEMB      96              0.0000000000
     10297        96  POPC      H15S          -22.2909714466       48.0833171468        6.5501633086  MEMB      96              0.0000000000
     10298        96  POPC      C216          -23.9100920046       49.0596594244        5.5768631189  MEMB      96              0.0000000000
     10299        96  POPC      H16R          -24.0896980225       49.9775465024        6.1764843572  MEMB      96              0.0000000000
     10300        96  POPC      H16S          -24.8684658448       48.8051212778        5.0758130685  MEMB      96              0.0000000000
     10301        96  POPC      C217          -22.9659507178       49.5522907963        4.4091824070  MEMB      96              0.0000000000
     10302        96  POPC      H17R          -21.9441739949       49.6280430039        4.8387804429  MEMB      96              0.0000000000
     10303        96  POPC      H17S          -23.3701640505       50.5726829170        4.2367518819  MEMB      96              0.0000000000
     10304        96  POPC      C218          -22.9597436807       48.6928220583        3.0766986561  MEMB      96              0.0000000000
     10305        96  POPC      H18R          -24.0006847411       48.7392679411        2.6912046426  MEMB      96              0.0000000000
     10306        96  POPC      H18S          -22.7301445490       47.6551579541        3.4005170447  MEMB      96              0.0000000000
     10307        96  POPC      H18T          -22.2324108964       49.0615720565        2.3221581893  MEMB      96              0.0000000000
     10308        96  POPC      C33           -24.4094943809       46.9422439186       12.4788622681  MEMB      96              0.0000000000
     10309        96  POPC      H3X           -23.5454185626       47.6316443302       12.3674123561  MEMB      96              0.0000000000
     10310        96  POPC      H3Y           -24.8891730812       46.6543021375       11.5190088572  MEMB      96              0.0000000000
     10311        96  POPC      C34           -23.8459681641       45.6230377923       13.0132827930  MEMB      96              0.0000000000
     10312        96  POPC      H4X           -24.6889134994       45.0557858719       13.4627150012  MEMB      96              0.0000000000
     10313        96  POPC      H4Y           -23.1002247907       45.8188917090       13.8131760581  MEMB      96              0.0000000000
     10314        96  POPC      C35           -23.2765921170       44.8321606670       11.8866192199  MEMB      96              0.0000000000
     10315        96  POPC      H5X           -24.0154517188       44.7077155756       11.0663012506  MEMB      96              0.0000000000
     10316        96  POPC      H5Y           -22.9898219711       43.8003467680       12.1823284903  MEMB      96              0.0000000000
     10317        96  POPC      C36           -22.1448852229       45.3636505584       11.0468168852  MEMB      96              0.0000000000
     10318        96  POPC      H6X           -21.3884793743       45.6119582334       11.8217452872  MEMB      96              0.0000000000
     10319        96  POPC      H6Y           -22.2142716332       46.3265333413       10.4969411134  MEMB      96              0.0000000000
     10320        96  POPC      C37           -21.5398903303       44.3443767311       10.0943990442  MEMB      96              0.0000000000
     10321        96  POPC      H7X           -21.0374483906       43.4817596366       10.5820099303  MEMB      96              0.0000000000
     10322        96  POPC      H7Y           -20.8729598802       44.9976155436        9.4920668761  MEMB      96              0.0000000000
     10323        96  POPC      C38           -22.5454284160       43.7409275745        9.1326354558  MEMB      96              0.0000000000
     10324        96  POPC      H8X           -23.1059887490       44.5939471594        8.6939432613  MEMB      96              0.0000000000
     10325        96  POPC      H8Y           -23.2323068957       43.0514892730        9.6685399723  MEMB      96              0.0000000000
     10326        96  POPC      C39           -21.9100586476       42.9920987730        7.9110977197  MEMB      96              0.0000000000
     10327        96  POPC      H9X           -21.3965020760       42.0510242069        8.2025750693  MEMB      96              0.0000000000
     10328        96  POPC      H9Y           -21.2761941966       43.6087309112        7.2385633898  MEMB      96              0.0000000000
     10329        96  POPC      C310          -22.9586285987       42.3311581761        6.9854057935  MEMB      96              0.0000000000
     10330        96  POPC      H10X          -23.7090475802       41.8533884057        7.6509345381  MEMB      96              0.0000000000
     10331        96  POPC      H10Y          -22.4513051679       41.4966030669        6.4558189388  MEMB      96              0.0000000000
     10332        96  POPC      C311          -23.5271304796       43.2228188878        5.9701208493  MEMB      96              0.0000000000
     10333        96  POPC      H11X          -22.8812316281       43.1975239278        5.0665187994  MEMB      96              0.0000000000
     10334        96  POPC      H11Y          -23.4461665826       44.2308951233        6.4300641158  MEMB      96              0.0000000000
     10335        96  POPC      C312          -24.8781034067       42.8594648997        5.5413481888  MEMB      96              0.0000000000
     10336        96  POPC      H12X          -25.5303666199       42.6645008439        6.4193358292  MEMB      96              0.0000000000
     10337        96  POPC      H12Y          -25.0116006114       41.8431061535        5.1129618948  MEMB      96              0.0000000000
     10338        96  POPC      C313          -25.6693806914       43.9673996718        4.7783931173  MEMB      96              0.0000000000
     10339        96  POPC      H13X          -25.6733270511       44.9404724192        5.3145230717  MEMB      96              0.0000000000
     10340        96  POPC      H13Y          -26.7254247108       43.6325092263        4.6950831600  MEMB      96              0.0000000000
     10341        96  POPC      C314          -25.2373386138       44.2221551543        3.3087603300  MEMB      96              0.0000000000
     10342        96  POPC      H14X          -25.8537489641       43.6449694908        2.5868072387  MEMB      96              0.0000000000
     10343        96  POPC      H14Y          -24.2023006768       43.8320825678        3.2045436617  MEMB      96              0.0000000000
     10344        96  POPC      C315          -25.2818120747       45.7495923588        2.8838801275  MEMB      96              0.0000000000
     10345        96  POPC      H15X          -24.6297445673       45.8721459296        1.9927527650  MEMB      96              0.0000000000
     10346        96  POPC      H15Y          -24.7468164659       46.2749592165        3.7036923609  MEMB      96              0.0000000000
     10347        96  POPC      C316          -26.6391986676       46.3855776525        2.5843701446  MEMB      96              0.0000000000
     10348        96  POPC      H16X          -26.6491976887       47.4444125387        2.2480817605  MEMB      96              0.0000000000
     10349        96  POPC      H16Y          -27.2516011757       46.1885314774        3.4901609488  MEMB      96              0.0000000000
     10350        96  POPC      H16Z          -27.1822445118       45.7691533878        1.8364100036  MEMB      96              0.0000000000
     10351        97  POPE      N             -38.4378344005       43.4684357921       21.3656010567  MEMB      97              0.0000000000
     10352        97  POPE      HN1           -38.4629381673       42.4288230715       21.3788424028  MEMB      97              0.0000000000
     10353        97  POPE      HN2           -37.4756312630       43.7442135335       21.6479335229  MEMB      97              0.0000000000
     10354        97  POPE      HN3           -39.1309481859       43.8483785232       22.0414979551  MEMB      97              0.0000000000
     10355        97  POPE      C12           -38.6654109718       44.1211340847       20.0534423745  MEMB      97              0.0000000000
     10356        97  POPE      H12A          -39.6030281861       43.7236118857       19.6094029193  MEMB      97              0.0000000000
     10357        97  POPE      H12B          -37.8017767428       43.8620981406       19.4043219531  MEMB      97              0.0000000000
     10358        97  POPE      C11           -38.5648380173       45.5966428979       20.3150647390  MEMB      97              0.0000000000
     10359        97  POPE      H11A          -37.7170042808       45.9521151090       20.9388743893  MEMB      97              0.0000000000
     10360        97  POPE      H11B          -39.4292699244       46.0232366536       20.8674198516  MEMB      97              0.0000000000
     10361        97  POPE      P             -39.5329947582       46.6041592707       18.0476066425  MEMB      97              0.0000000000
     10362        97  POPE      O13           -40.6397195064       47.0962820439       18.8433845803  MEMB      97              0.0000000000
     10363        97  POPE      O14           -39.7295619571       45.3982934132       17.1374977351  MEMB      97              0.0000000000
     10364        97  POPE      O11           -38.8724253791       47.7158174302       17.1766393938  MEMB      97              0.0000000000
     10365        97  POPE      O12           -38.3762478125       46.2856422657       19.0607634780  MEMB      97              0.0000000000
     10366        97  POPE      C1            -38.4319272310       48.9262697624       17.9569576959  MEMB      97              0.0000000000
     10367        97  POPE      HA            -37.5193939247       48.6200799214       18.5118017969  MEMB      97              0.0000000000
     10368        97  POPE      HB            -39.2077996372       49.2292557583       18.6921735311  MEMB      97              0.0000000000
     10369        97  POPE      C2            -38.2179702641       50.1580089112       17.0946240225  MEMB      97              0.0000000000
     10370        97  POPE      HS            -38.3115532233       51.0351683926       17.7700161827  MEMB      97              0.0000000000
     10371        97  POPE      O21           -39.1922686692       50.1152613000       16.0464363274  MEMB      97              0.0000000000
     10372        97  POPE      C21           -40.4023949399       50.4685107100       16.4454864003  MEMB      97              0.0000000000
     10373        97  POPE      O22           -40.6606539595       51.0850690241       17.5003019152  MEMB      97              0.0000000000
     10374        97  POPE      C22           -41.4565782815       49.8657485513       15.5414895440  MEMB      97              0.0000000000
     10375        97  POPE      H2R           -41.4511318895       50.4046393552       14.5699503859  MEMB      97              0.0000000000
     10376        97  POPE      H2S           -42.5388552668       49.9080482630       15.7888928254  MEMB      97              0.0000000000
     10377        97  POPE      C3            -36.8536380139       50.2406038040       16.4200452451  MEMB      97              0.0000000000
     10378        97  POPE      HX            -36.1333018440       50.6942390796       17.1339444149  MEMB      97              0.0000000000
     10379        97  POPE      HY            -36.7959467380       50.9184169366       15.5416591830  MEMB      97              0.0000000000
     10380        97  POPE      O31           -36.3552048735       49.0232036228       15.9608111988  MEMB      97              0.0000000000
     10381        97  POPE      C31           -36.6818666478       48.5699256263       14.8109566288  MEMB      97              0.0000000000
     10382        97  POPE      O32           -37.5086804713       48.9836370962       14.0318204084  MEMB      97              0.0000000000
     10383        97  POPE      C32           -35.9226145800       47.2414388155       14.5543379688  MEMB      97              0.0000000000
     10384        97  POPE      H2X           -36.0481669091       46.6161820259       15.4640697341  MEMB      97              0.0000000000
     10385        97  POPE      H2Y           -34.8424763507       47.4733324667       14.4366595986  MEMB      97              0.0000000000
     10386        97  POPE      C23           -41.1595664571       48.4215759593       15.1807749124  MEMB      97              0.0000000000
     10387        97  POPE      H3R           -41.1683397157       47.6639149066       15.9932980813  MEMB      97              0.0000000000
     10388        97  POPE      H3S           -40.1285503152       48.2856797053       14.7898028739  MEMB      97              0.0000000000
     10389        97  POPE      C24           -42.0845367182       47.7200354756       14.1889135575  MEMB      97              0.0000000000
     10390        97  POPE      H4R           -41.9732708303       48.1753271034       13.1816147973  MEMB      97              0.0000000000
     10391        97  POPE      H4S           -43.1291966900       47.9879336155       14.4558159437  MEMB      97              0.0000000000
     10392        97  POPE      C25           -41.8289595379       46.2349461734       14.0085272118  MEMB      97              0.0000000000
     10393        97  POPE      H5R           -42.6866468688       45.5791489530       14.2704876610  MEMB      97              0.0000000000
     10394        97  POPE      H5S           -40.9603165266       45.9509927106       14.6403107716  MEMB      97              0.0000000000
     10395        97  POPE      C26           -41.4269362519       45.8994229159       12.4653085665  MEMB      97              0.0000000000
     10396        97  POPE      H6R           -42.2121350972       46.3965677705       11.8565139127  MEMB      97              0.0000000000
     10397        97  POPE      H6S           -41.5016539564       44.7909927309       12.4543180356  MEMB      97              0.0000000000
     10398        97  POPE      C27           -39.9919012234       46.2251543516       12.1428098340  MEMB      97              0.0000000000
     10399        97  POPE      H7R           -39.7144334722       45.4766203729       11.3701330713  MEMB      97              0.0000000000
     10400        97  POPE      H7S           -39.3952275992       45.9289544086       13.0319482014  MEMB      97              0.0000000000
     10401        97  POPE      C28           -39.5862607653       47.5450040780       11.5533994544  MEMB      97              0.0000000000
     10402        97  POPE      H8R           -38.4842960995       47.5213591407       11.4139873597  MEMB      97              0.0000000000
     10403        97  POPE      H8S           -39.6285228094       48.3655296539       12.3012452949  MEMB      97              0.0000000000
     10404        97  POPE      C29           -40.2502818255       48.0434147895       10.3037706086  MEMB      97              0.0000000000
     10405        97  POPE      H91           -41.1462748724       48.6412408673       10.5269307627  MEMB      97              0.0000000000
     10406        97  POPE      C210          -39.7831953828       48.0015604612        9.0158261727  MEMB      97              0.0000000000
     10407        97  POPE      H101          -40.4413973799       48.4657006936        8.2665969747  MEMB      97              0.0000000000
     10408        97  POPE      C211          -38.5254620838       47.4064465372        8.5060766482  MEMB      97              0.0000000000
     10409        97  POPE      H11R          -38.7878918165       46.6310089945        7.7549787136  MEMB      97              0.0000000000
     10410        97  POPE      H11S          -38.0012962763       46.9142499233        9.3530207119  MEMB      97              0.0000000000
     10411        97  POPE      C212          -37.6078012480       48.5842480564        8.0065686320  MEMB      97              0.0000000000
     10412        97  POPE      H12R          -36.5766887061       48.1979514435        7.8585716330  MEMB      97              0.0000000000
     10413        97  POPE      H12S          -37.5477798642       49.3669234759        8.7927850928  MEMB      97              0.0000000000
     10414        97  POPE      C213          -38.0666848130       49.0770164829        6.5978901917  MEMB      97              0.0000000000
     10415        97  POPE      H13R          -37.3689673960       49.9110468896        6.3700635052  MEMB      97              0.0000000000
     10416        97  POPE      H13S          -39.1278061882       49.3822604611        6.4747280636  MEMB      97              0.0000000000
     10417        97  POPE      C214          -37.8720657735       48.0870601259        5.4595890754  MEMB      97              0.0000000000
     10418        97  POPE      H14R          -38.6351737544       47.2815081687        5.4041523664  MEMB      97              0.0000000000
     10419        97  POPE      H14S          -36.9049525398       47.5719776392        5.6431723451  MEMB      97              0.0000000000
     10420        97  POPE      C215          -37.7183901332       48.6536011758        4.0393820626  MEMB      97              0.0000000000
     10421        97  POPE      H15R          -37.2583117584       49.6541535784        4.1861611606  MEMB      97              0.0000000000
     10422        97  POPE      H15S          -38.7427347222       48.6784456879        3.6099382845  MEMB      97              0.0000000000
     10423        97  POPE      C216          -36.8695031369       47.8341685219        3.1130602663  MEMB      97              0.0000000000
     10424        97  POPE      H16R          -35.8208361273       47.8305078214        3.4799450343  MEMB      97              0.0000000000
     10425        97  POPE      H16S          -36.7548007801       48.3980918117        2.1627159632  MEMB      97              0.0000000000
     10426        97  POPE      C217          -37.4076659916       46.4397678216        2.7977549620  MEMB      97              0.0000000000
     10427        97  POPE      H17R          -38.4741608454       46.5419015341        2.5036842144  MEMB      97              0.0000000000
     10428        97  POPE      H17S          -37.4409025762       45.7522179351        3.6698170101  MEMB      97              0.0000000000
     10429        97  POPE      C218          -36.5483410272       45.8386864077        1.6490776222  MEMB      97              0.0000000000
     10430        97  POPE      H18R          -35.5274619380       45.5600047388        1.9874029276  MEMB      97              0.0000000000
     10431        97  POPE      H18S          -36.6586378198       46.5643948500        0.8151096630  MEMB      97              0.0000000000
     10432        97  POPE      H18T          -36.9968767973       44.8608718581        1.3715629126  MEMB      97              0.0000000000
     10433        97  POPE      C33           -36.2996157121       46.4322798952       13.2575925809  MEMB      97              0.0000000000
     10434        97  POPE      H3X           -35.9958885726       47.1353602063       12.4527641861  MEMB      97              0.0000000000
     10435        97  POPE      H3Y           -37.4075726042       46.3501086832       13.2580327873  MEMB      97              0.0000000000
     10436        97  POPE      C34           -35.5103955802       45.0972597199       13.2045331768  MEMB      97              0.0000000000
     10437        97  POPE      H4X           -35.8699155738       44.4202479032       14.0087231451  MEMB      97              0.0000000000
     10438        97  POPE      H4Y           -34.4315253833       45.2003472689       13.4489371958  MEMB      97              0.0000000000
     10439        97  POPE      C35           -35.4744647720       44.4305706791       11.8434569548  MEMB      97              0.0000000000
     10440        97  POPE      H5X           -34.8873744354       43.4876294886       11.8659957166  MEMB      97              0.0000000000
     10441        97  POPE      H5Y           -35.0012329971       45.0186857078       11.0282920832  MEMB      97              0.0000000000
     10442        97  POPE      C36           -36.8979173593       44.0879973399       11.3241007203  MEMB      97              0.0000000000
     10443        97  POPE      H6X           -37.4900537669       45.0272913733       11.3618085844  MEMB      97              0.0000000000
     10444        97  POPE      H6Y           -37.2113536450       43.3055460928       12.0478746991  MEMB      97              0.0000000000
     10445        97  POPE      C37           -36.8943109539       43.5267140299        9.9155622197  MEMB      97              0.0000000000
     10446        97  POPE      H7X           -36.0857008158       42.7648296416        9.9138568012  MEMB      97              0.0000000000
     10447        97  POPE      H7Y           -36.5821750917       44.3476688555        9.2351760930  MEMB      97              0.0000000000
     10448        97  POPE      C38           -38.1054098716       42.7241193139        9.4224205482  MEMB      97              0.0000000000
     10449        97  POPE      H8X           -38.1820273032       41.8353769175       10.0846801491  MEMB      97              0.0000000000
     10450        97  POPE      H8Y           -37.8281457106       42.2744065583        8.4450747362  MEMB      97              0.0000000000
     10451        97  POPE      C39           -39.3579713823       43.5324009673        9.4408764561  MEMB      97              0.0000000000
     10452        97  POPE      H9X           -39.1486284219       44.5511592928        9.0501995516  MEMB      97              0.0000000000
     10453        97  POPE      H9Y           -39.5809326552       43.5537525832       10.5290640587  MEMB      97              0.0000000000
     10454        97  POPE      C310          -40.6398521725       42.9286502389        8.7946552666  MEMB      97              0.0000000000
     10455        97  POPE      H10X          -41.4626828843       43.6750130578        8.8092567750  MEMB      97              0.0000000000
     10456        97  POPE      H10Y          -41.0507789676       42.1114254958        9.4252136095  MEMB      97              0.0000000000
     10457        97  POPE      C311          -40.4763935500       42.3909588006        7.3019825749  MEMB      97              0.0000000000
     10458        97  POPE      H11X          -39.9100282313       41.4354723043        7.2775581604  MEMB      97              0.0000000000
     10459        97  POPE      H11Y          -39.7925323193       43.1130886044        6.8068222150  MEMB      97              0.0000000000
     10460        97  POPE      C312          -41.7734190422       42.1922021755        6.5947890811  MEMB      97              0.0000000000
     10461        97  POPE      H12X          -42.4026118982       43.0908099244        6.4188861014  MEMB      97              0.0000000000
     10462        97  POPE      H12Y          -42.3559148615       41.4528762084        7.1850565686  MEMB      97              0.0000000000
     10463        97  POPE      C313          -41.7031309304       41.4987095043        5.2202541004  MEMB      97              0.0000000000
     10464        97  POPE      H13X          -42.5528320311       40.7925571992        5.1033009023  MEMB      97              0.0000000000
     10465        97  POPE      H13Y          -40.8500523991       40.7874088630        5.2453372037  MEMB      97              0.0000000000
     10466        97  POPE      C314          -41.6329325023       42.4346968939        3.9339847542  MEMB      97              0.0000000000
     10467        97  POPE      H14X          -41.6620597266       41.8232803735        3.0068148281  MEMB      97              0.0000000000
     10468        97  POPE      H14Y          -40.6283252774       42.9088659035        3.9497573542  MEMB      97              0.0000000000
     10469        97  POPE      C315          -42.6757642415       43.6033296166        3.7378114803  MEMB      97              0.0000000000
     10470        97  POPE      H15X          -42.2512857369       44.4993877314        4.2390287342  MEMB      97              0.0000000000
     10471        97  POPE      H15Y          -43.5297448549       43.2553644330        4.3574554135  MEMB      97              0.0000000000
     10472        97  POPE      C316          -43.1519212622       44.0119755279        2.3123676601  MEMB      97              0.0000000000
     10473        97  POPE      H16X          -44.0062829829       44.7197822360        2.2540888633  MEMB      97              0.0000000000
     10474        97  POPE      H16Y          -43.4808047579       43.0814524984        1.8021878841  MEMB      97              0.0000000000
     10475        97  POPE      H16Z          -42.2190870810       44.3646267464        1.8226964478  MEMB      97              0.0000000000
     10476        98  POPE      N              19.1530211024       36.6616277745       21.9369627220  MEMB      98              0.0000000000
     10477        98  POPE      HN1            18.7012176574       37.2323076016       21.1941314243  MEMB      98              0.0000000000
     10478        98  POPE      HN2            18.5215220216       36.0665583139       22.5102874649  MEMB      98              0.0000000000
     10479        98  POPE      HN3            19.6380328059       37.2754412122       22.6222339952  MEMB      98              0.0000000000
     10480        98  POPE      C12            20.2155039384       35.7931927977       21.3726038366  MEMB      98              0.0000000000
     10481        98  POPE      H12A           20.6459574810       35.2404224549       22.2348539942  MEMB      98              0.0000000000
     10482        98  POPE      H12B           21.0541590657       36.4487665992       21.0544818608  MEMB      98              0.0000000000
     10483        98  POPE      C11            19.7913560384       34.9885722221       20.1621616503  MEMB      98              0.0000000000
     10484        98  POPE      H11A           18.9012962305       34.3970964783       20.4659231584  MEMB      98              0.0000000000
     10485        98  POPE      H11B           20.6354078633       34.2905579732       19.9759533395  MEMB      98              0.0000000000
     10486        98  POPE      P              19.3484148478       35.2088791508       17.7057371944  MEMB      98              0.0000000000
     10487        98  POPE      O13            18.4119432356       34.1094825890       17.8812189193  MEMB      98              0.0000000000
     10488        98  POPE      O14            20.6205215564       34.8371717797       17.0510652581  MEMB      98              0.0000000000
     10489        98  POPE      O11            18.6727043503       36.2601562327       16.7487283642  MEMB      98              0.0000000000
     10490        98  POPE      O12            19.5221605368       35.8801222710       19.1415220450  MEMB      98              0.0000000000
     10491        98  POPE      C1             17.8054640531       37.2716355131       17.2295699200  MEMB      98              0.0000000000
     10492        98  POPE      HA             18.0460663517       37.5468629309       18.2787035721  MEMB      98              0.0000000000
     10493        98  POPE      HB             16.8225224323       36.7544969102       17.2562927073  MEMB      98              0.0000000000
     10494        98  POPE      C2             17.6722180985       38.4837953672       16.2311415365  MEMB      98              0.0000000000
     10495        98  POPE      HS             16.8207312889       39.0994794378       16.5920078196  MEMB      98              0.0000000000
     10496        98  POPE      O21            17.3864391579       38.0764337933       14.8943856207  MEMB      98              0.0000000000
     10497        98  POPE      C21            17.0721270807       38.9055629180       13.9513476657  MEMB      98              0.0000000000
     10498        98  POPE      O22            16.6255677224       40.0581701457       14.1349822859  MEMB      98              0.0000000000
     10499        98  POPE      C22            17.2809198545       38.1790633592       12.5591199792  MEMB      98              0.0000000000
     10500        98  POPE      H2R            16.7144907769       37.2236361665       12.5843744626  MEMB      98              0.0000000000
     10501        98  POPE      H2S            18.3502993170       37.9579971996       12.3544772723  MEMB      98              0.0000000000
     10502        98  POPE      C3             18.9296467341       39.3711826068       16.1695370022  MEMB      98              0.0000000000
     10503        98  POPE      HX             19.1504551591       39.7272447461       17.1985093533  MEMB      98              0.0000000000
     10504        98  POPE      HY             18.7316617784       40.3056145503       15.6021219849  MEMB      98              0.0000000000
     10505        98  POPE      O31            20.1071414035       38.6305151400       15.7564647831  MEMB      98              0.0000000000
     10506        98  POPE      C31            20.6820289221       39.0093994382       14.6599692283  MEMB      98              0.0000000000
     10507        98  POPE      O32            20.2451239592       39.7343941664       13.8209331500  MEMB      98              0.0000000000
     10508        98  POPE      C32            22.0376773969       38.2476820350       14.6581961530  MEMB      98              0.0000000000
     10509        98  POPE      H2X            21.8319185594       37.1643104428       14.7934365816  MEMB      98              0.0000000000
     10510        98  POPE      H2Y            22.4894354548       38.4936326882       15.6429518878  MEMB      98              0.0000000000
     10511        98  POPE      C23            16.8734143230       39.1820277520       11.5686190725  MEMB      98              0.0000000000
     10512        98  POPE      H3R            17.4207943001       40.1448055384       11.6566819642  MEMB      98              0.0000000000
     10513        98  POPE      H3S            15.8089020968       39.3792335013       11.8181086206  MEMB      98              0.0000000000
     10514        98  POPE      C24            16.9932282166       38.7519709968       10.0600728843  MEMB      98              0.0000000000
     10515        98  POPE      H4R            16.4844392678       37.7825413284        9.8712317689  MEMB      98              0.0000000000
     10516        98  POPE      H4S            18.0551027653       38.4380241234        9.9696234843  MEMB      98              0.0000000000
     10517        98  POPE      C25            16.5004902517       39.8686584965        9.0953079683  MEMB      98              0.0000000000
     10518        98  POPE      H5R            16.7667059368       40.8996860498        9.4122192070  MEMB      98              0.0000000000
     10519        98  POPE      H5S            15.4062849348       39.6929344014        9.1737731449  MEMB      98              0.0000000000
     10520        98  POPE      C26            16.9166906072       39.6165450044        7.6720846870  MEMB      98              0.0000000000
     10521        98  POPE      H6R            16.7367729076       38.5331118951        7.5043840466  MEMB      98              0.0000000000
     10522        98  POPE      H6S            17.9808536070       39.7546375917        7.3843194802  MEMB      98              0.0000000000
     10523        98  POPE      C27            16.2491649216       40.5044174735        6.6083679614  MEMB      98              0.0000000000
     10524        98  POPE      H7R            16.4133572218       41.5896159214        6.7807207676  MEMB      98              0.0000000000
     10525        98  POPE      H7S            15.1825055282       40.2979780769        6.8406208730  MEMB      98              0.0000000000
     10526        98  POPE      C28            16.6214397972       40.1080703349        5.2299275162  MEMB      98              0.0000000000
     10527        98  POPE      H8R            16.0817082073       40.7058146201        4.4646090062  MEMB      98              0.0000000000
     10528        98  POPE      H8S            16.1985451152       39.1202299489        4.9476998774  MEMB      98              0.0000000000
     10529        98  POPE      C29            18.1359451077       40.2049739147        4.8836082627  MEMB      98              0.0000000000
     10530        98  POPE      H91            18.7734454465       40.8629083883        5.4924725604  MEMB      98              0.0000000000
     10531        98  POPE      C210           18.7347409141       39.5960134979        3.8508614744  MEMB      98              0.0000000000
     10532        98  POPE      H101           19.8165587071       39.7901798048        3.8064788558  MEMB      98              0.0000000000
     10533        98  POPE      C211           18.0891435198       38.7612733081        2.8019584691  MEMB      98              0.0000000000
     10534        98  POPE      H11R           17.0072501188       38.9516082723        2.6358248023  MEMB      98              0.0000000000
     10535        98  POPE      H11S           18.1533042085       37.6839717601        3.0658247512  MEMB      98              0.0000000000
     10536        98  POPE      C212           18.8160928750       38.9815848460        1.5231706172  MEMB      98              0.0000000000
     10537        98  POPE      H12R           19.8068952747       38.5123973277        1.7034342522  MEMB      98              0.0000000000
     10538        98  POPE      H12S           18.9203076957       40.0399535436        1.2017439230  MEMB      98              0.0000000000
     10539        98  POPE      C213           18.2858997275       38.2391392121        0.3180012012  MEMB      98              0.0000000000
     10540        98  POPE      H13R           18.7039876414       38.6424699175       -0.6290195370  MEMB      98              0.0000000000
     10541        98  POPE      H13S           17.2010301459       38.4396557165        0.1869610132  MEMB      98              0.0000000000
     10542        98  POPE      C214           18.4616206094       36.7144806992        0.4322194582  MEMB      98              0.0000000000
     10543        98  POPE      H14R           17.9477342306       36.2329714234        1.2915173587  MEMB      98              0.0000000000
     10544        98  POPE      H14S           19.4926721069       36.7362630213        0.8454749594  MEMB      98              0.0000000000
     10545        98  POPE      C215           18.4545366936       35.8326857069       -0.7658413737  MEMB      98              0.0000000000
     10546        98  POPE      H15R           19.0435433624       34.9356255430       -0.4783080165  MEMB      98              0.0000000000
     10547        98  POPE      H15S           18.8484761531       36.3704424860       -1.6546338082  MEMB      98              0.0000000000
     10548        98  POPE      C216           17.0544013852       35.3310442048       -1.1280320336  MEMB      98              0.0000000000
     10549        98  POPE      H16R           16.5549884946       34.7990428297       -0.2902484090  MEMB      98              0.0000000000
     10550        98  POPE      H16S           17.2303603052       34.6004984423       -1.9463603262  MEMB      98              0.0000000000
     10551        98  POPE      C217           16.1152678292       36.5097565813       -1.5471118756  MEMB      98              0.0000000000
     10552        98  POPE      H17R           16.7410160427       37.2756024781       -2.0533144594  MEMB      98              0.0000000000
     10553        98  POPE      H17S           15.7312640315       37.0416519959       -0.6504797096  MEMB      98              0.0000000000
     10554        98  POPE      C218           14.9049558750       36.0412948562       -2.2637744293  MEMB      98              0.0000000000
     10555        98  POPE      H18R           14.5658250359       36.8440791874       -2.9528674460  MEMB      98              0.0000000000
     10556        98  POPE      H18S           14.0454675008       35.8876698828       -1.5767522676  MEMB      98              0.0000000000
     10557        98  POPE      H18T           15.1403378553       35.1395447647       -2.8685581658  MEMB      98              0.0000000000
     10558        98  POPE      C33            23.0223204085       38.4852695493       13.4595197117  MEMB      98              0.0000000000
     10559        98  POPE      H3X            23.9909167709       38.2574334532       13.9537187989  MEMB      98              0.0000000000
     10560        98  POPE      H3Y            23.0600631123       39.5844899283       13.3026418706  MEMB      98              0.0000000000
     10561        98  POPE      C34            22.7253562435       37.7718187374       12.1534182916  MEMB      98              0.0000000000
     10562        98  POPE      H4X            22.3627623951       36.7592724412       12.4319803454  MEMB      98              0.0000000000
     10563        98  POPE      H4Y            23.6415112200       37.5759819195       11.5562339684  MEMB      98              0.0000000000
     10564        98  POPE      C35            21.6426050234       38.4612525521       11.3495021764  MEMB      98              0.0000000000
     10565        98  POPE      H5X            22.0018890410       39.4913900174       11.1396142743  MEMB      98              0.0000000000
     10566        98  POPE      H5Y            20.6426877827       38.5285596091       11.8290397518  MEMB      98              0.0000000000
     10567        98  POPE      C36            21.4855539952       37.9391993985        9.9873041729  MEMB      98              0.0000000000
     10568        98  POPE      H6X            22.4219448054       37.6563696248        9.4605205968  MEMB      98              0.0000000000
     10569        98  POPE      H6Y            21.0292047558       38.7587771139        9.3920236587  MEMB      98              0.0000000000
     10570        98  POPE      C37            20.5052310002       36.7679143431       10.0912310980  MEMB      98              0.0000000000
     10571        98  POPE      H7X            19.6351329699       37.0130702126       10.7371023752  MEMB      98              0.0000000000
     10572        98  POPE      H7Y            21.0258419580       35.9419774643       10.6214332475  MEMB      98              0.0000000000
     10573        98  POPE      C38            20.0031609202       36.1473914462        8.8091809519  MEMB      98              0.0000000000
     10574        98  POPE      H8X            20.8534777341       35.6316801491        8.3138784888  MEMB      98              0.0000000000
     10575        98  POPE      H8Y            19.6627763084       36.9108945663        8.0773875073  MEMB      98              0.0000000000
     10576        98  POPE      C39            18.8534983645       35.1163244667        8.9056831461  MEMB      98              0.0000000000
     10577        98  POPE      H9X            18.2797580924       35.2212059539        7.9600918221  MEMB      98              0.0000000000
     10578        98  POPE      H9Y            18.1620523248       35.3677220389        9.7381626067  MEMB      98              0.0000000000
     10579        98  POPE      C310           19.0849328455       33.6040495275        9.0632349268  MEMB      98              0.0000000000
     10580        98  POPE      H10X           18.1922237315       32.9597991311        9.2126761569  MEMB      98              0.0000000000
     10581        98  POPE      H10Y           19.6565626850       33.5213671086       10.0122995111  MEMB      98              0.0000000000
     10582        98  POPE      C311           20.0833976068       32.9984815287        8.0393711884  MEMB      98              0.0000000000
     10583        98  POPE      H11X           20.0630618368       31.8881969956        8.0050842245  MEMB      98              0.0000000000
     10584        98  POPE      H11Y           21.0787292499       33.3982377555        8.3289063555  MEMB      98              0.0000000000
     10585        98  POPE      C312           19.9780959038       33.4531685600        6.6159301566  MEMB      98              0.0000000000
     10586        98  POPE      H12X           20.3275141753       34.4897403361        6.4216445257  MEMB      98              0.0000000000
     10587        98  POPE      H12Y           18.9043322905       33.5879889682        6.3645812679  MEMB      98              0.0000000000
     10588        98  POPE      C313           20.7105356472       32.4846339340        5.6780595788  MEMB      98              0.0000000000
     10589        98  POPE      H13X           20.5031144964       31.4086370117        5.8611659609  MEMB      98              0.0000000000
     10590        98  POPE      H13Y           21.8038327314       32.5591698132        5.8610001634  MEMB      98              0.0000000000
     10591        98  POPE      C314           20.4953605753       32.7381389475        4.1854949175  MEMB      98              0.0000000000
     10592        98  POPE      H14X           20.3505580340       33.8312711078        4.0497906243  MEMB      98              0.0000000000
     10593        98  POPE      H14Y           19.5306542059       32.3376110953        3.8070239744  MEMB      98              0.0000000000
     10594        98  POPE      C315           21.7054239692       32.4522133930        3.2529562737  MEMB      98              0.0000000000
     10595        98  POPE      H15X           21.9553254928       31.3908559222        3.4660074469  MEMB      98              0.0000000000
     10596        98  POPE      H15Y           22.6144341329       33.0684582288        3.4210752130  MEMB      98              0.0000000000
     10597        98  POPE      C316           21.5095842098       32.5130162748        1.6815501794  MEMB      98              0.0000000000
     10598        98  POPE      H16X           21.0248222300       33.5014149201        1.5319030922  MEMB      98              0.0000000000
     10599        98  POPE      H16Y           20.8740923114       31.6717891597        1.3311115483  MEMB      98              0.0000000000
     10600        98  POPE      H16Z           22.5195730747       32.4946574213        1.2190514222  MEMB      98              0.0000000000
     10601        99  POPC      N             -47.8471305946       41.3930918190       17.7383392854  MEMB      99              0.0000000000
     10602        99  POPC      C12           -46.9267214051       42.5330903890       17.9440458354  MEMB      99              0.0000000000
     10603        99  POPC      H12A          -47.4348433485       43.4395635050       17.6499055183  MEMB      99              0.0000000000
     10604        99  POPC      H12B          -46.0358388085       42.4311282746       17.3421058748  MEMB      99              0.0000000000
     10605        99  POPC      C13           -48.7749387600       41.0854454405       18.8696536041  MEMB      99              0.0000000000
     10606        99  POPC      H13A          -49.3763408266       40.2090989135       18.6779972320  MEMB      99              0.0000000000
     10607        99  POPC      H13B          -48.3246693196       40.9179047113       19.8369113500  MEMB      99              0.0000000000
     10608        99  POPC      H13C          -49.4930427894       41.8794603767       19.0120154714  MEMB      99              0.0000000000
     10609        99  POPC      C14           -48.6187609330       41.7351429612       16.4514584775  MEMB      99              0.0000000000
     10610        99  POPC      H14A          -49.2972648811       40.9268328777       16.2219644085  MEMB      99              0.0000000000
     10611        99  POPC      H14B          -49.2443130022       42.6151249575       16.4782254903  MEMB      99              0.0000000000
     10612        99  POPC      H14C          -48.0490610768       41.9672520482       15.5637833017  MEMB      99              0.0000000000
     10613        99  POPC      C15           -47.0500836314       40.1774098552       17.5096397258  MEMB      99              0.0000000000
     10614        99  POPC      H15A          -47.6350235768       39.2994833286       17.2783600827  MEMB      99              0.0000000000
     10615        99  POPC      H15B          -46.6694125797       39.9140576500       18.4854138649  MEMB      99              0.0000000000
     10616        99  POPC      H15C          -46.3252111582       40.4005928942       16.7407774626  MEMB      99              0.0000000000
     10617        99  POPC      C11           -46.4997923315       42.8702037856       19.3563779784  MEMB      99              0.0000000000
     10618        99  POPC      H11A          -47.2736402374       43.4350863826       19.9188617893  MEMB      99              0.0000000000
     10619        99  POPC      H11B          -45.7984218515       43.7311432761       19.3219750375  MEMB      99              0.0000000000
     10620        99  POPC      P             -44.3684111586       41.4272422520       20.2789110359  MEMB      99              0.0000000000
     10621        99  POPC      O13           -44.1515074251       39.9398767862       20.2381709256  MEMB      99              0.0000000000
     10622        99  POPC      O14           -44.0079767821       42.0678338738       21.5358825352  MEMB      99              0.0000000000
     10623        99  POPC      O12           -45.8873080835       41.7459746592       20.0069469635  MEMB      99              0.0000000000
     10624        99  POPC      O11           -43.7306919044       42.2101355424       19.0705736412  MEMB      99              0.0000000000
     10625        99  POPC      C1            -43.3934933612       41.5105728638       17.9028779274  MEMB      99              0.0000000000
     10626        99  POPC      HA            -44.3441327420       41.1978785281       17.4203552447  MEMB      99              0.0000000000
     10627        99  POPC      HB            -42.8224237423       40.5681384298       18.0443613367  MEMB      99              0.0000000000
     10628        99  POPC      C2            -42.7014920584       42.4814537221       16.8937319857  MEMB      99              0.0000000000
     10629        99  POPC      HS            -41.7040726294       42.6193941613       17.3632512937  MEMB      99              0.0000000000
     10630        99  POPC      O21           -43.5389741103       43.6923806377       16.8456004624  MEMB      99              0.0000000000
     10631        99  POPC      C21           -43.0487083704       44.6407711938       16.0769755257  MEMB      99              0.0000000000
     10632        99  POPC      O22           -42.0049244805       44.6752870591       15.4927352350  MEMB      99              0.0000000000
     10633        99  POPC      C22           -44.1101457310       45.7196797329       16.0579849152  MEMB      99              0.0000000000
     10634        99  POPC      H2R           -43.6416417848       46.6003658168       15.5688867767  MEMB      99              0.0000000000
     10635        99  POPC      H2S           -44.3197836650       45.8947004675       17.1348975173  MEMB      99              0.0000000000
     10636        99  POPC      C3            -42.5634939549       41.8032716558       15.4552634216  MEMB      99              0.0000000000
     10637        99  POPC      HX            -41.9000852855       40.9278140606       15.6219484056  MEMB      99              0.0000000000
     10638        99  POPC      HY            -42.1728309020       42.5031781159       14.6859558245  MEMB      99              0.0000000000
     10639        99  POPC      O31           -43.9281083059       41.4458959686       15.0906034060  MEMB      99              0.0000000000
     10640        99  POPC      C31           -44.2262388013       40.2162758855       14.7516747546  MEMB      99              0.0000000000
     10641        99  POPC      O32           -43.5197767577       39.2405167050       14.8500146341  MEMB      99              0.0000000000
     10642        99  POPC      C32           -45.6484809971       40.1818512777       14.2586762179  MEMB      99              0.0000000000
     10643        99  POPC      H2X           -46.0414652671       41.1926008417       14.0172847215  MEMB      99              0.0000000000
     10644        99  POPC      H2Y           -46.2740404334       39.8173875284       15.1013873796  MEMB      99              0.0000000000
     10645        99  POPC      C23           -45.3594864717       45.3283896084       15.2714875294  MEMB      99              0.0000000000
     10646        99  POPC      H3R           -46.1082247415       46.1323458830       15.4369152137  MEMB      99              0.0000000000
     10647        99  POPC      H3S           -45.7607588291       44.4037732925       15.7388050782  MEMB      99              0.0000000000
     10648        99  POPC      C24           -45.1824306254       45.1182289480       13.8175142452  MEMB      99              0.0000000000
     10649        99  POPC      H4R           -44.3335931951       44.4057667039       13.7388143267  MEMB      99              0.0000000000
     10650        99  POPC      H4S           -44.8774901533       45.9672193194       13.1690173828  MEMB      99              0.0000000000
     10651        99  POPC      C25           -46.4603422009       44.5120998288       13.0548208349  MEMB      99              0.0000000000
     10652        99  POPC      H5R           -47.3623432768       45.1573014720       13.1213770985  MEMB      99              0.0000000000
     10653        99  POPC      H5S           -46.6328158084       43.5634032209       13.6066802495  MEMB      99              0.0000000000
     10654        99  POPC      C26           -46.1661237182       44.1882761891       11.6043949742  MEMB      99              0.0000000000
     10655        99  POPC      H6R           -45.1914212564       43.6885961454       11.4183951946  MEMB      99              0.0000000000
     10656        99  POPC      H6S           -46.0964736371       45.1565552909       11.0641115537  MEMB      99              0.0000000000
     10657        99  POPC      C27           -47.2185485336       43.3495651090       10.7642656098  MEMB      99              0.0000000000
     10658        99  POPC      H7R           -48.0342873439       44.1035553715       10.7840086236  MEMB      99              0.0000000000
     10659        99  POPC      H7S           -47.5536074284       42.4639593848       11.3454357503  MEMB      99              0.0000000000
     10660        99  POPC      C28           -46.7024774834       42.9799216496        9.2973284500  MEMB      99              0.0000000000
     10661        99  POPC      H8R           -47.2262495028       42.0874538881        8.8929949719  MEMB      99              0.0000000000
     10662        99  POPC      H8S           -45.6325433900       42.6834508380        9.3381575306  MEMB      99              0.0000000000
     10663        99  POPC      C29           -46.7723955194       44.1397580563        8.3807800868  MEMB      99              0.0000000000
     10664        99  POPC      H91           -45.9717754753       44.8889396611        8.4687259561  MEMB      99              0.0000000000
     10665        99  POPC      C210          -47.8105082825       44.4509267135        7.5131515685  MEMB      99              0.0000000000
     10666        99  POPC      H101          -47.8236368561       45.3211807506        6.8404805623  MEMB      99              0.0000000000
     10667        99  POPC      C211          -49.0696283715       43.5989477062        7.4290216413  MEMB      99              0.0000000000
     10668        99  POPC      H11R          -49.9004258050       44.3293663705        7.5319057236  MEMB      99              0.0000000000
     10669        99  POPC      H11S          -49.2975958229       42.8411128917        8.2087903629  MEMB      99              0.0000000000
     10670        99  POPC      C212          -49.1660561581       42.9631669113        6.0774005085  MEMB      99              0.0000000000
     10671        99  POPC      H12R          -48.8096658408       43.7415348702        5.3692686739  MEMB      99              0.0000000000
     10672        99  POPC      H12S          -50.1846734791       42.7087027316        5.7140993562  MEMB      99              0.0000000000
     10673        99  POPC      C213          -48.4291662902       41.6046454798        5.9115424236  MEMB      99              0.0000000000
     10674        99  POPC      H13R          -48.6479392297       41.0231663284        6.8325970590  MEMB      99              0.0000000000
     10675        99  POPC      H13S          -47.3407512607       41.8174940019        5.9776435839  MEMB      99              0.0000000000
     10676        99  POPC      C214          -48.8277689459       40.7042314914        4.6771703955  MEMB      99              0.0000000000
     10677        99  POPC      H14R          -48.4041862339       41.3552521808        3.8827708315  MEMB      99              0.0000000000
     10678        99  POPC      H14S          -49.9148155413       40.6631476270        4.4514209614  MEMB      99              0.0000000000
     10679        99  POPC      C215          -48.1767848205       39.3620469370        4.7350067436  MEMB      99              0.0000000000
     10680        99  POPC      H15R          -48.8562471452       38.7227100404        5.3382487257  MEMB      99              0.0000000000
     10681        99  POPC      H15S          -47.2242135776       39.4654894421        5.2973488555  MEMB      99              0.0000000000
     10682        99  POPC      C216          -47.7712223501       38.6710312704        3.4266293427  MEMB      99              0.0000000000
     10683        99  POPC      H16R          -48.5467112434       38.6765834300        2.6310746661  MEMB      99              0.0000000000
     10684        99  POPC      H16S          -47.4887591412       37.6018549601        3.5333867594  MEMB      99              0.0000000000
     10685        99  POPC      C217          -46.5494857020       39.2568114953        2.7976181451  MEMB      99              0.0000000000
     10686        99  POPC      H17R          -46.3575353064       40.2582569951        3.2387330207  MEMB      99              0.0000000000
     10687        99  POPC      H17S          -46.7917822130       39.4878068499        1.7382522212  MEMB      99              0.0000000000
     10688        99  POPC      C218          -45.2974232606       38.2868935482        2.5734020482  MEMB      99              0.0000000000
     10689        99  POPC      H18R          -44.8831708636       37.9565826755        3.5499319455  MEMB      99              0.0000000000
     10690        99  POPC      H18S          -44.5979781275       38.8180956494        1.8930193907  MEMB      99              0.0000000000
     10691        99  POPC      H18T          -45.7022845197       37.3413234112        2.1535145199  MEMB      99              0.0000000000
     10692        99  POPC      C33           -45.7523198751       39.1785284983       13.0617709045  MEMB      99              0.0000000000
     10693        99  POPC      H3X           -46.8121668611       38.8488198937       13.0134208309  MEMB      99              0.0000000000
     10694        99  POPC      H3Y           -45.1358452503       38.2703468710       13.2334870822  MEMB      99              0.0000000000
     10695        99  POPC      C34           -45.5569854257       39.9271478272       11.7768228774  MEMB      99              0.0000000000
     10696        99  POPC      H4X           -44.6281548998       40.4960316383       11.9958340301  MEMB      99              0.0000000000
     10697        99  POPC      H4Y           -46.3548127300       40.7000539448       11.7566068711  MEMB      99              0.0000000000
     10698        99  POPC      C35           -45.4641452242       39.0069100426       10.4337647051  MEMB      99              0.0000000000
     10699        99  POPC      H5X           -46.4796621638       38.7267934255       10.0808040479  MEMB      99              0.0000000000
     10700        99  POPC      H5Y           -44.8607607926       38.1263263907       10.7416934123  MEMB      99              0.0000000000
     10701        99  POPC      C36           -44.6644662147       39.7751080142        9.4021590796  MEMB      99              0.0000000000
     10702        99  POPC      H6X           -43.7090685734       40.0181560891        9.9144712779  MEMB      99              0.0000000000
     10703        99  POPC      H6Y           -45.1614381418       40.7275668889        9.1190300652  MEMB      99              0.0000000000
     10704        99  POPC      C37           -44.4286511408       38.9126906541        8.1665129627  MEMB      99              0.0000000000
     10705        99  POPC      H7X           -45.2795998645       39.1467283283        7.4916546673  MEMB      99              0.0000000000
     10706        99  POPC      H7Y           -44.5395148293       37.8480652752        8.4641756396  MEMB      99              0.0000000000
     10707        99  POPC      C38           -43.1157358561       39.1355720744        7.4023080194  MEMB      99              0.0000000000
     10708        99  POPC      H8X           -43.1797148174       38.6982389875        6.3830107065  MEMB      99              0.0000000000
     10709        99  POPC      H8Y           -42.3235753059       38.6477644512        8.0096355414  MEMB      99              0.0000000000
     10710        99  POPC      C39           -42.6288255712       40.6164907844        7.2861324231  MEMB      99              0.0000000000
     10711        99  POPC      H9X           -41.6003593990       40.6425270256        6.8667278373  MEMB      99              0.0000000000
     10712        99  POPC      H9Y           -42.5791509580       40.9298385708        8.3508700746  MEMB      99              0.0000000000
     10713        99  POPC      C310          -43.5533042262       41.5463920479        6.4562834196  MEMB      99              0.0000000000
     10714        99  POPC      H10X          -44.5723945420       41.5533790971        6.8986948705  MEMB      99              0.0000000000
     10715        99  POPC      H10Y          -43.6105940307       41.2439053082        5.3887911725  MEMB      99              0.0000000000
     10716        99  POPC      C311          -43.0360236024       42.9735750356        6.6100564460  MEMB      99              0.0000000000
     10717        99  POPC      H11X          -41.9379001912       43.0425734073        6.4561570372  MEMB      99              0.0000000000
     10718        99  POPC      H11Y          -43.2375907945       43.2657440394        7.6628292422  MEMB      99              0.0000000000
     10719        99  POPC      C312          -43.7436035850       44.0107480178        5.6213110620  MEMB      99              0.0000000000
     10720        99  POPC      H12X          -43.1829816277       44.9521828905        5.8049522410  MEMB      99              0.0000000000
     10721        99  POPC      H12Y          -44.7786118661       44.1337155821        6.0059642609  MEMB      99              0.0000000000
     10722        99  POPC      C313          -43.7735373919       43.7217326018        4.1026471338  MEMB      99              0.0000000000
     10723        99  POPC      H13X          -43.9536822493       42.6563680918        3.8440601882  MEMB      99              0.0000000000
     10724        99  POPC      H13Y          -42.8483814360       44.0419815414        3.5774340486  MEMB      99              0.0000000000
     10725        99  POPC      C314          -45.0032182252       44.4555444116        3.4072051256  MEMB      99              0.0000000000
     10726        99  POPC      H14X          -44.7376784291       45.4469065070        3.8326587318  MEMB      99              0.0000000000
     10727        99  POPC      H14Y          -45.9432228520       43.9372084946        3.6936319910  MEMB      99              0.0000000000
     10728        99  POPC      C315          -45.0185208595       44.5384219280        1.9157618636  MEMB      99              0.0000000000
     10729        99  POPC      H15X          -45.4650854791       43.6564457694        1.4087924314  MEMB      99              0.0000000000
     10730        99  POPC      H15Y          -43.9431630341       44.6937313702        1.6838018645  MEMB      99              0.0000000000
     10731        99  POPC      C316          -45.8078531970       45.7529846187        1.3540635224  MEMB      99              0.0000000000
     10732        99  POPC      H16X          -45.8934071448       45.6981924225        0.2477169826  MEMB      99              0.0000000000
     10733        99  POPC      H16Y          -45.4111276369       46.7698614996        1.5611658535  MEMB      99              0.0000000000
     10734        99  POPC      H16Z          -46.8637307338       45.6616151446        1.6873727325  MEMB      99              0.0000000000
     10735       100  POPE      N              33.2179437087      -10.4970159559       17.9883036292  MEMB      100             0.0000000000
     10736       100  POPE      HN1            34.0048320815      -10.1820161479       17.3856579685  MEMB      100             0.0000000000
     10737       100  POPE      HN2            32.9894697134      -11.5061525219       17.8832174472  MEMB      100             0.0000000000
     10738       100  POPE      HN3            32.3933699920       -9.8904991812       17.8044134763  MEMB      100             0.0000000000
     10739       100  POPE      C12            33.6087516952      -10.3515199372       19.4546781868  MEMB      100             0.0000000000
     10740       100  POPE      H12A           34.0851315947      -11.2880532631       19.8156333383  MEMB      100             0.0000000000
     10741       100  POPE      H12B           32.7574204948      -10.0992049901       20.1224306633  MEMB      100             0.0000000000
     10742       100  POPE      C11            34.6216308549       -9.2167300490       19.5825666189  MEMB      100             0.0000000000
     10743       100  POPE      H11A           35.3761852922       -9.3485335087       18.7778328054  MEMB      100             0.0000000000
     10744       100  POPE      H11B           35.1161736861       -9.1875534283       20.5769997556  MEMB      100             0.0000000000
     10745       100  POPE      P              34.4608107631       -6.6287811245       19.0541095565  MEMB      100             0.0000000000
     10746       100  POPE      O13            35.8888482150       -6.5327735232       19.5247879547  MEMB      100             0.0000000000
     10747       100  POPE      O14            33.5698273184       -5.5886688983       19.5561992373  MEMB      100             0.0000000000
     10748       100  POPE      O11            34.4918003186       -6.5064372593       17.4312218576  MEMB      100             0.0000000000
     10749       100  POPE      O12            33.8607559256       -8.0380990121       19.4081329575  MEMB      100             0.0000000000
     10750       100  POPE      C1             35.0331398868       -5.2593005195       17.0063336503  MEMB      100             0.0000000000
     10751       100  POPE      HA             35.9927999119       -5.0403903728       17.5215540425  MEMB      100             0.0000000000
     10752       100  POPE      HB             34.4168606419       -4.3921042739       17.3264769685  MEMB      100             0.0000000000
     10753       100  POPE      C2             35.4081346235       -5.2827971111       15.4587535999  MEMB      100             0.0000000000
     10754       100  POPE      HS             35.1235642172       -4.3712411896       14.8909448156  MEMB      100             0.0000000000
     10755       100  POPE      O21            34.6641882465       -6.3744108535       14.7652865159  MEMB      100             0.0000000000
     10756       100  POPE      C21            33.4025229326       -6.2462968452       14.4656443829  MEMB      100             0.0000000000
     10757       100  POPE      O22            32.8882311639       -5.1588955731       14.3915050509  MEMB      100             0.0000000000
     10758       100  POPE      C22            32.7607096886       -7.5643126848       14.1970313089  MEMB      100             0.0000000000
     10759       100  POPE      H2R            32.5437865008       -8.1421815151       15.1207917330  MEMB      100             0.0000000000
     10760       100  POPE      H2S            33.4620882951       -8.1397346539       13.5557213293  MEMB      100             0.0000000000
     10761       100  POPE      C3             36.9530706585       -5.4510897883       15.1333754951  MEMB      100             0.0000000000
     10762       100  POPE      HX             37.3377649342       -6.2806470332       15.7643795770  MEMB      100             0.0000000000
     10763       100  POPE      HY             37.4587333594       -4.5285032338       15.4903916415  MEMB      100             0.0000000000
     10764       100  POPE      O31            37.1896653150       -5.6707789825       13.7434042417  MEMB      100             0.0000000000
     10765       100  POPE      C31            37.1942403721       -4.6291058068       12.9122445526  MEMB      100             0.0000000000
     10766       100  POPE      O32            37.1814267685       -3.4632488134       13.2297025021  MEMB      100             0.0000000000
     10767       100  POPE      C32            37.1681206747       -5.0477907064       11.4235884046  MEMB      100             0.0000000000
     10768       100  POPE      H2X            38.2199632973       -5.3742514928       11.2773991420  MEMB      100             0.0000000000
     10769       100  POPE      H2Y            36.8803866948       -4.0919574330       10.9358251179  MEMB      100             0.0000000000
     10770       100  POPE      C23            31.2984559350       -7.4593162089       13.4971674010  MEMB      100             0.0000000000
     10771       100  POPE      H3R            30.7372369414       -6.6769952585       14.0515393360  MEMB      100             0.0000000000
     10772       100  POPE      H3S            30.6899674608       -8.3813941714       13.6147892887  MEMB      100             0.0000000000
     10773       100  POPE      C24            31.2192793281       -6.9882512021       12.0346319914  MEMB      100             0.0000000000
     10774       100  POPE      H4R            31.7700184925       -7.7461133756       11.4374286546  MEMB      100             0.0000000000
     10775       100  POPE      H4S            31.8277339153       -6.0586829189       12.0320269963  MEMB      100             0.0000000000
     10776       100  POPE      C25            29.8599993509       -6.7035084642       11.3880994824  MEMB      100             0.0000000000
     10777       100  POPE      H5R            29.3494348271       -6.0233065963       12.1029214803  MEMB      100             0.0000000000
     10778       100  POPE      H5S            29.0796021743       -7.4790735518       11.2338271538  MEMB      100             0.0000000000
     10779       100  POPE      C26            29.9413242463       -5.9490058487        9.9821177057  MEMB      100             0.0000000000
     10780       100  POPE      H6R            30.5355456022       -5.0275762719       10.1615315509  MEMB      100             0.0000000000
     10781       100  POPE      H6S            28.9019941514       -5.6316454378        9.7510404011  MEMB      100             0.0000000000
     10782       100  POPE      C27            30.4561695684       -6.7452793991        8.7514371781  MEMB      100             0.0000000000
     10783       100  POPE      H7R            29.9583430325       -7.7334226189        8.8517508080  MEMB      100             0.0000000000
     10784       100  POPE      H7S            31.5553941817       -6.9060840143        8.7384626997  MEMB      100             0.0000000000
     10785       100  POPE      C28            30.1250221338       -6.1318953346        7.3491069560  MEMB      100             0.0000000000
     10786       100  POPE      H8R            29.0729892020       -5.8153789555        7.1836830616  MEMB      100             0.0000000000
     10787       100  POPE      H8S            30.2697089382       -6.8518782823        6.5154333534  MEMB      100             0.0000000000
     10788       100  POPE      C29            30.9952605633       -4.9259992758        7.2520994861  MEMB      100             0.0000000000
     10789       100  POPE      H91            30.6341435011       -4.0794596158        7.8545657082  MEMB      100             0.0000000000
     10790       100  POPE      C210           32.0850211915       -4.8102686141        6.4880375272  MEMB      100             0.0000000000
     10791       100  POPE      H101           32.5359536300       -3.8200240096        6.6495160766  MEMB      100             0.0000000000
     10792       100  POPE      C211           32.8084317279       -5.7898381432        5.5672852302  MEMB      100             0.0000000000
     10793       100  POPE      H11R           32.5773133125       -5.5741769566        4.5022049477  MEMB      100             0.0000000000
     10794       100  POPE      H11S           32.4238259876       -6.8242717975        5.6951390155  MEMB      100             0.0000000000
     10795       100  POPE      C212           34.2818354412       -5.7833623498        5.8796622637  MEMB      100             0.0000000000
     10796       100  POPE      H12R           34.5045413490       -6.2142536964        6.8791899392  MEMB      100             0.0000000000
     10797       100  POPE      H12S           34.6251150132       -4.7267367751        5.8748628900  MEMB      100             0.0000000000
     10798       100  POPE      C213           35.1619891622       -6.5005338747        4.7999055202  MEMB      100             0.0000000000
     10799       100  POPE      H13R           36.1252070324       -5.9830268025        4.9966754980  MEMB      100             0.0000000000
     10800       100  POPE      H13S           34.9182187275       -6.2328631055        3.7495485191  MEMB      100             0.0000000000
     10801       100  POPE      C214           35.5573074138       -7.9286610071        5.0121364304  MEMB      100             0.0000000000
     10802       100  POPE      H14R           34.6795559688       -8.6010001869        4.9033541864  MEMB      100             0.0000000000
     10803       100  POPE      H14S           35.8968050914       -7.9596976674        6.0695390248  MEMB      100             0.0000000000
     10804       100  POPE      C215           36.7658132676       -8.3260311662        4.1325644275  MEMB      100             0.0000000000
     10805       100  POPE      H15R           37.0984375154       -9.2687180838        4.6173570725  MEMB      100             0.0000000000
     10806       100  POPE      H15S           37.5174801286       -7.5082690261        4.1567165889  MEMB      100             0.0000000000
     10807       100  POPE      C216           36.4245192006       -8.8928563459        2.6996762621  MEMB      100             0.0000000000
     10808       100  POPE      H16R           35.6200716505       -8.3623345696        2.1467461846  MEMB      100             0.0000000000
     10809       100  POPE      H16S           36.1844573973       -9.9768583740        2.7400601513  MEMB      100             0.0000000000
     10810       100  POPE      C217           37.6826218531       -8.8333911244        1.7564170903  MEMB      100             0.0000000000
     10811       100  POPE      H17R           38.3957249072       -9.3682170589        2.4195665037  MEMB      100             0.0000000000
     10812       100  POPE      H17S           38.1382282221       -7.8722008014        1.4357056117  MEMB      100             0.0000000000
     10813       100  POPE      C218           37.5349903535       -9.6915795332        0.4829502418  MEMB      100             0.0000000000
     10814       100  POPE      H18R           36.7618476145       -9.1853199000       -0.1337119745  MEMB      100             0.0000000000
     10815       100  POPE      H18S           37.2015138941      -10.7002548632        0.8080470775  MEMB      100             0.0000000000
     10816       100  POPE      H18T           38.4712682327       -9.9574053879       -0.0528135448  MEMB      100             0.0000000000
     10817       100  POPE      C33            36.0203222995       -6.1350166244       11.2122415777  MEMB      100             0.0000000000
     10818       100  POPE      H3X            35.1062533062       -5.7694744122       11.7271960026  MEMB      100             0.0000000000
     10819       100  POPE      H3Y            36.4108848747       -7.0238967159       11.7523102343  MEMB      100             0.0000000000
     10820       100  POPE      C34            35.8275056399       -6.3845917998        9.7396868895  MEMB      100             0.0000000000
     10821       100  POPE      H4X            36.7982745003       -6.7450643809        9.3372084913  MEMB      100             0.0000000000
     10822       100  POPE      H4Y            35.5976501049       -5.4042962575        9.2701034884  MEMB      100             0.0000000000
     10823       100  POPE      C35            34.7512105712       -7.4249906079        9.3816805274  MEMB      100             0.0000000000
     10824       100  POPE      H5X            34.6124315635       -7.4082925539        8.2795085323  MEMB      100             0.0000000000
     10825       100  POPE      H5Y            33.7857228605       -7.0087730102        9.7407308599  MEMB      100             0.0000000000
     10826       100  POPE      C36            34.9409974217       -8.8301928979        9.8703311020  MEMB      100             0.0000000000
     10827       100  POPE      H6X            34.8725085410       -8.9243304816       10.9752150136  MEMB      100             0.0000000000
     10828       100  POPE      H6Y            36.0088824141       -9.1205377938        9.7721355802  MEMB      100             0.0000000000
     10829       100  POPE      C37            33.9441479967       -9.8530330434        9.3143193776  MEMB      100             0.0000000000
     10830       100  POPE      H7X            32.9191774481       -9.5810131887        9.6456227782  MEMB      100             0.0000000000
     10831       100  POPE      H7Y            34.1079234479      -10.7656883705        9.9263318903  MEMB      100             0.0000000000
     10832       100  POPE      C38            33.9565383447      -10.0573791457        7.8351712951  MEMB      100             0.0000000000
     10833       100  POPE      H8X            35.0275581317      -10.1545277456        7.5562445309  MEMB      100             0.0000000000
     10834       100  POPE      H8Y            33.4976468865       -9.1605432082        7.3667426896  MEMB      100             0.0000000000
     10835       100  POPE      C39            33.2376346902      -11.3177824724        7.2421882271  MEMB      100             0.0000000000
     10836       100  POPE      H9X            32.3461584410      -11.5780409185        7.8519885159  MEMB      100             0.0000000000
     10837       100  POPE      H9Y            33.9751735135      -12.1208581859        7.4553242905  MEMB      100             0.0000000000
     10838       100  POPE      C310           32.9401236675      -11.2717611890        5.7443666997  MEMB      100             0.0000000000
     10839       100  POPE      H10X           32.6741497542      -12.2967077997        5.4081180639  MEMB      100             0.0000000000
     10840       100  POPE      H10Y           33.9025807593      -11.1837395998        5.1964169263  MEMB      100             0.0000000000
     10841       100  POPE      C311           31.9018661453      -10.2107058476        5.2673942430  MEMB      100             0.0000000000
     10842       100  POPE      H11X           32.0782145818       -9.2387907164        5.7759248162  MEMB      100             0.0000000000
     10843       100  POPE      H11Y           30.9163960100      -10.5484275720        5.6535467103  MEMB      100             0.0000000000
     10844       100  POPE      C312           31.9607672094       -9.9177747931        3.8068044315  MEMB      100             0.0000000000
     10845       100  POPE      H12X           32.9585698858       -9.4675006324        3.6171623716  MEMB      100             0.0000000000
     10846       100  POPE      H12Y           31.1999582699       -9.1400446653        3.5818007624  MEMB      100             0.0000000000
     10847       100  POPE      C313           31.8227845744      -11.1281842712        2.7651822658  MEMB      100             0.0000000000
     10848       100  POPE      H13X           30.8515851490      -11.5821726749        3.0567071789  MEMB      100             0.0000000000
     10849       100  POPE      H13Y           32.5874928401      -11.9270564220        2.8716978822  MEMB      100             0.0000000000
     10850       100  POPE      C314           32.0328860777      -10.5520168970        1.3914372422  MEMB      100             0.0000000000
     10851       100  POPE      H14X           33.0642279861      -10.1426931173        1.3356780546  MEMB      100             0.0000000000
     10852       100  POPE      H14Y           31.4424122976       -9.6152344477        1.3014362585  MEMB      100             0.0000000000
     10853       100  POPE      C315           31.8029251555      -11.4932412514        0.2301960113  MEMB      100             0.0000000000
     10854       100  POPE      H15X           32.5011333123      -12.3503377289        0.3407048937  MEMB      100             0.0000000000
     10855       100  POPE      H15Y           32.1096793638      -10.8319868905       -0.6082349830  MEMB      100             0.0000000000
     10856       100  POPE      C316           30.2995585803      -11.7683823477        0.0249890674  MEMB      100             0.0000000000
     10857       100  POPE      H16X           30.1373830001      -12.7643526115        0.4898154162  MEMB      100             0.0000000000
     10858       100  POPE      H16Y           29.9759326436      -11.7652449750       -1.0378278482  MEMB      100             0.0000000000
     10859       100  POPE      H16Z           29.5850139260      -11.0708947481        0.5120805699  MEMB      100             0.0000000000
     10860       101  POPC      N             -43.7700348641        6.4994509149       18.7602624133  MEMB      101             0.0000000000
     10861       101  POPC      C12           -45.1034320912        6.2906213665       18.1576448197  MEMB      101             0.0000000000
     10862       101  POPC      H12A          -45.0471780606        5.4460611642       17.4868591162  MEMB      101             0.0000000000
     10863       101  POPC      H12B          -45.3162838350        7.1162027450       17.4946896275  MEMB      101             0.0000000000
     10864       101  POPC      C13           -43.7033358106        7.8695281632       19.4138300675  MEMB      101             0.0000000000
     10865       101  POPC      H13A          -42.7122162374        8.1717712663       19.7183485021  MEMB      101             0.0000000000
     10866       101  POPC      H13B          -44.1593109019        8.6282182890       18.7950603599  MEMB      101             0.0000000000
     10867       101  POPC      H13C          -44.2784695181        7.8282324330       20.3270200008  MEMB      101             0.0000000000
     10868       101  POPC      C14           -43.4447218089        5.4803130303       19.8019357707  MEMB      101             0.0000000000
     10869       101  POPC      H14A          -44.2816240166        5.4171846177       20.4816485019  MEMB      101             0.0000000000
     10870       101  POPC      H14B          -43.2336565542        4.5338196425       19.3265398192  MEMB      101             0.0000000000
     10871       101  POPC      H14C          -42.5824692931        5.7974929298       20.3696659772  MEMB      101             0.0000000000
     10872       101  POPC      C15           -42.7831912194        6.4483046708       17.6839033530  MEMB      101             0.0000000000
     10873       101  POPC      H15A          -41.9117551609        6.8169449854       18.2045793133  MEMB      101             0.0000000000
     10874       101  POPC      H15B          -43.2257610260        6.9614321921       16.8429324319  MEMB      101             0.0000000000
     10875       101  POPC      H15C          -42.5090813577        5.4290449241       17.4550511539  MEMB      101             0.0000000000
     10876       101  POPC      C11           -46.3708295329        6.0239106408       19.0125326601  MEMB      101             0.0000000000
     10877       101  POPC      H11A          -46.2124301282        5.3536128633       19.8842730762  MEMB      101             0.0000000000
     10878       101  POPC      H11B          -47.1775674498        5.6585025422       18.3417332588  MEMB      101             0.0000000000
     10879       101  POPC      P             -48.1437508384        8.0206353007       19.2600846492  MEMB      101             0.0000000000
     10880       101  POPC      O13           -48.1723912528        9.1792918658       20.2411459474  MEMB      101             0.0000000000
     10881       101  POPC      O14           -49.2968957856        7.1076687549       19.3179715013  MEMB      101             0.0000000000
     10882       101  POPC      O12           -46.7239484063        7.2823522358       19.5672933248  MEMB      101             0.0000000000
     10883       101  POPC      O11           -47.9165101118        8.5748027588       17.7833954953  MEMB      101             0.0000000000
     10884       101  POPC      C1            -49.0652109312        8.7579278766       16.9326637962  MEMB      101             0.0000000000
     10885       101  POPC      HA            -48.7270500096        9.5516314380       16.2326617800  MEMB      101             0.0000000000
     10886       101  POPC      HB            -49.9917753292        9.1190290605       17.4280479334  MEMB      101             0.0000000000
     10887       101  POPC      C2            -49.4210908893        7.4610595808       16.1661579468  MEMB      101             0.0000000000
     10888       101  POPC      HS            -49.9542515930        6.8126124253       16.8938782406  MEMB      101             0.0000000000
     10889       101  POPC      O21           -48.1883604087        6.8742685954       15.8576987499  MEMB      101             0.0000000000
     10890       101  POPC      C21           -48.1934583233        5.5467873007       15.6121703222  MEMB      101             0.0000000000
     10891       101  POPC      O22           -49.2312505119        4.8954191931       15.6109146777  MEMB      101             0.0000000000
     10892       101  POPC      C22           -46.8709065294        5.0958398464       15.0953573883  MEMB      101             0.0000000000
     10893       101  POPC      H2R           -47.0651233647        4.0334559690       14.8347019219  MEMB      101             0.0000000000
     10894       101  POPC      H2S           -46.0920609242        5.1813633612       15.8830159817  MEMB      101             0.0000000000
     10895       101  POPC      C3            -50.2890430722        7.7273184198       14.8869647439  MEMB      101             0.0000000000
     10896       101  POPC      HX            -50.8643029177        8.6537263988       15.0994859848  MEMB      101             0.0000000000
     10897       101  POPC      HY            -50.8658967051        6.8018035742       14.6748724426  MEMB      101             0.0000000000
     10898       101  POPC      O31           -49.3867275627        7.9053384648       13.7632640874  MEMB      101             0.0000000000
     10899       101  POPC      C31           -49.9331581737        7.6361451381       12.5376131765  MEMB      101             0.0000000000
     10900       101  POPC      O32           -51.1403891415        7.6447206125       12.2494983998  MEMB      101             0.0000000000
     10901       101  POPC      C32           -48.8672521859        7.6484787235       11.4642241446  MEMB      101             0.0000000000
     10902       101  POPC      H2X           -48.5187767025        6.5935953341       11.4745642235  MEMB      101             0.0000000000
     10903       101  POPC      H2Y           -48.0316045281        8.3307399560       11.7298055278  MEMB      101             0.0000000000
     10904       101  POPC      C23           -46.3752790120        5.9399848442       13.8577681938  MEMB      101             0.0000000000
     10905       101  POPC      H3R           -46.2145423678        6.9897410975       14.1841061662  MEMB      101             0.0000000000
     10906       101  POPC      H3S           -47.1440657912        6.0083987714       13.0586388439  MEMB      101             0.0000000000
     10907       101  POPC      C24           -44.9495434808        5.5064532136       13.4700042140  MEMB      101             0.0000000000
     10908       101  POPC      H4R           -44.2122211952        5.7426064877       14.2668157072  MEMB      101             0.0000000000
     10909       101  POPC      H4S           -44.7063470483        6.1954474293       12.6330673715  MEMB      101             0.0000000000
     10910       101  POPC      C25           -44.9099966973        4.0761067227       13.0366714567  MEMB      101             0.0000000000
     10911       101  POPC      H5R           -45.1126249899        3.3693707362       13.8696105622  MEMB      101             0.0000000000
     10912       101  POPC      H5S           -43.8847134194        3.8635154747       12.6652950529  MEMB      101             0.0000000000
     10913       101  POPC      C26           -45.8183526669        3.7782249234       11.8727602353  MEMB      101             0.0000000000
     10914       101  POPC      H6R           -45.5427170761        4.4872170740       11.0630219958  MEMB      101             0.0000000000
     10915       101  POPC      H6S           -46.8885411339        3.9683297955       12.1027118781  MEMB      101             0.0000000000
     10916       101  POPC      C27           -45.7026102103        2.3309995875       11.4617170641  MEMB      101             0.0000000000
     10917       101  POPC      H7R           -46.3680716285        1.8003951778       12.1758184656  MEMB      101             0.0000000000
     10918       101  POPC      H7S           -44.6960266490        1.8962132598       11.6408007527  MEMB      101             0.0000000000
     10919       101  POPC      C28           -46.1031120521        2.1563805646       10.0009811121  MEMB      101             0.0000000000
     10920       101  POPC      H8R           -47.2120104047        2.2240456553        9.9916260926  MEMB      101             0.0000000000
     10921       101  POPC      H8S           -45.9979630187        1.0907120539        9.7049822838  MEMB      101             0.0000000000
     10922       101  POPC      C29           -45.3812533239        3.0448187141        8.9665475968  MEMB      101             0.0000000000
     10923       101  POPC      H91           -44.3036675602        2.8393778807        8.8852878554  MEMB      101             0.0000000000
     10924       101  POPC      C210          -46.0322382043        3.9521892886        8.1364130171  MEMB      101             0.0000000000
     10925       101  POPC      H101          -45.4206873798        4.6275660484        7.5200758822  MEMB      101             0.0000000000
     10926       101  POPC      C211          -47.5390229033        4.2388552751        8.1258122012  MEMB      101             0.0000000000
     10927       101  POPC      H11R          -47.7110888514        5.3267444624        8.2714530138  MEMB      101             0.0000000000
     10928       101  POPC      H11S          -48.1207850877        3.7861563773        8.9570386019  MEMB      101             0.0000000000
     10929       101  POPC      C212          -48.3592467347        3.8291008295        6.8512240149  MEMB      101             0.0000000000
     10930       101  POPC      H12R          -49.4587168167        3.8330480918        7.0108205763  MEMB      101             0.0000000000
     10931       101  POPC      H12S          -48.2684619738        2.7467838166        6.6174103026  MEMB      101             0.0000000000
     10932       101  POPC      C213          -48.0595732690        4.6943216161        5.6367622157  MEMB      101             0.0000000000
     10933       101  POPC      H13R          -47.1655122945        4.2767365728        5.1262734125  MEMB      101             0.0000000000
     10934       101  POPC      H13S          -47.7295773726        5.7078841952        5.9499949650  MEMB      101             0.0000000000
     10935       101  POPC      C214          -49.3079528169        4.8008264785        4.7065339605  MEMB      101             0.0000000000
     10936       101  POPC      H14R          -50.1527365904        5.1262985147        5.3505286705  MEMB      101             0.0000000000
     10937       101  POPC      H14S          -49.5647198121        3.7692185178        4.3837695673  MEMB      101             0.0000000000
     10938       101  POPC      C215          -49.1191356176        5.7939374890        3.6145032218  MEMB      101             0.0000000000
     10939       101  POPC      H15R          -48.1022918378        5.5720041935        3.2257930041  MEMB      101             0.0000000000
     10940       101  POPC      H15S          -49.0475071660        6.7961216790        4.0886522375  MEMB      101             0.0000000000
     10941       101  POPC      C216          -50.2466710319        5.8225848049        2.6282559276  MEMB      101             0.0000000000
     10942       101  POPC      H16R          -51.1128872853        6.2234144563        3.1968734836  MEMB      101             0.0000000000
     10943       101  POPC      H16S          -50.4845515673        4.8335534834        2.1815460666  MEMB      101             0.0000000000
     10944       101  POPC      C217          -49.9445458468        6.7943652476        1.5214327706  MEMB      101             0.0000000000
     10945       101  POPC      H17R          -49.1279072328        6.4841728847        0.8349897488  MEMB      101             0.0000000000
     10946       101  POPC      H17S          -49.7281150097        7.8071890709        1.9235104318  MEMB      101             0.0000000000
     10947       101  POPC      C218          -51.1616904255        6.8789009995        0.5478587112  MEMB      101             0.0000000000
     10948       101  POPC      H18R          -52.0830440292        6.9162059567        1.1675662960  MEMB      101             0.0000000000
     10949       101  POPC      H18S          -51.2252112440        5.9660366871       -0.0821922347  MEMB      101             0.0000000000
     10950       101  POPC      H18T          -51.1105645373        7.7838224268       -0.0946549470  MEMB      101             0.0000000000
     10951       101  POPC      C33           -49.4818590603        7.8916360940       10.1140296484  MEMB      101             0.0000000000
     10952       101  POPC      H3X           -50.2702620855        8.6714743801       10.1818064589  MEMB      101             0.0000000000
     10953       101  POPC      H3Y           -49.8444669029        6.9378099437        9.6746526120  MEMB      101             0.0000000000
     10954       101  POPC      C34           -48.4480900797        8.2255547216        9.0505723198  MEMB      101             0.0000000000
     10955       101  POPC      H4X           -49.0185418588        8.3761724063        8.1091794280  MEMB      101             0.0000000000
     10956       101  POPC      H4Y           -47.6770133165        7.4527320525        8.8444004701  MEMB      101             0.0000000000
     10957       101  POPC      C35           -47.7451863505        9.5846891405        9.3965484322  MEMB      101             0.0000000000
     10958       101  POPC      H5X           -47.2618405164        9.4742200534       10.3907794375  MEMB      101             0.0000000000
     10959       101  POPC      H5Y           -48.5840630533       10.2995490437        9.5364843989  MEMB      101             0.0000000000
     10960       101  POPC      C36           -46.6152584290       10.0596626688        8.3389421850  MEMB      101             0.0000000000
     10961       101  POPC      H6X           -45.8691593996       10.5050730076        9.0312331052  MEMB      101             0.0000000000
     10962       101  POPC      H6Y           -47.1004212204       10.7609413204        7.6268001914  MEMB      101             0.0000000000
     10963       101  POPC      C37           -45.9269609530        8.9585404034        7.4230330187  MEMB      101             0.0000000000
     10964       101  POPC      H7X           -46.7437217477        8.5765285280        6.7739645908  MEMB      101             0.0000000000
     10965       101  POPC      H7Y           -45.6303532616        8.2031211102        8.1817728765  MEMB      101             0.0000000000
     10966       101  POPC      C38           -44.7942355326        9.5287714275        6.6307372582  MEMB      101             0.0000000000
     10967       101  POPC      H8X           -44.1665624764       10.3196718904        7.0942290681  MEMB      101             0.0000000000
     10968       101  POPC      H8Y           -45.1862941952       10.0715263794        5.7441547874  MEMB      101             0.0000000000
     10969       101  POPC      C39           -43.7370981618        8.5258664872        6.0946587575  MEMB      101             0.0000000000
     10970       101  POPC      H9X           -43.3368175113        7.9275238198        6.9408745247  MEMB      101             0.0000000000
     10971       101  POPC      H9Y           -42.9669335786        9.1377503621        5.5781643678  MEMB      101             0.0000000000
     10972       101  POPC      C310          -44.4623027195        7.4508561882        5.2647637308  MEMB      101             0.0000000000
     10973       101  POPC      H10X          -45.1850478471        7.0725504527        6.0189818588  MEMB      101             0.0000000000
     10974       101  POPC      H10Y          -43.6982124224        6.7109396677        4.9438107946  MEMB      101             0.0000000000
     10975       101  POPC      C311          -45.1214081812        7.9123086747        3.9548672389  MEMB      101             0.0000000000
     10976       101  POPC      H11X          -45.8955763122        8.6790752051        4.1717859781  MEMB      101             0.0000000000
     10977       101  POPC      H11Y          -45.6116129726        7.1091510921        3.3641403392  MEMB      101             0.0000000000
     10978       101  POPC      C312          -44.0355098635        8.6739772285        3.0912855808  MEMB      101             0.0000000000
     10979       101  POPC      H12X          -43.0771692650        8.2234859919        3.4273843622  MEMB      101             0.0000000000
     10980       101  POPC      H12Y          -43.9588383970        9.7181618483        3.4629325147  MEMB      101             0.0000000000
     10981       101  POPC      C313          -44.3305661334        8.7972169841        1.6084188849  MEMB      101             0.0000000000
     10982       101  POPC      H13X          -44.1255288149        7.8427750358        1.0780215335  MEMB      101             0.0000000000
     10983       101  POPC      H13Y          -43.6968319737        9.6440758054        1.2685196846  MEMB      101             0.0000000000
     10984       101  POPC      C314          -45.7287178386        9.4102005909        1.3642890813  MEMB      101             0.0000000000
     10985       101  POPC      H14X          -45.7981517467       10.3436877139        1.9627059627  MEMB      101             0.0000000000
     10986       101  POPC      H14Y          -46.4345633336        8.6856230700        1.8237341141  MEMB      101             0.0000000000
     10987       101  POPC      C315          -46.1113854647        9.6867794696       -0.1562191881  MEMB      101             0.0000000000
     10988       101  POPC      H15X          -45.2843704029       10.3482741025       -0.4920637105  MEMB      101             0.0000000000
     10989       101  POPC      H15Y          -47.0912701223       10.2100444926       -0.1377613918  MEMB      101             0.0000000000
     10990       101  POPC      C316          -46.1847556474        8.4814101860       -1.0955680157  MEMB      101             0.0000000000
     10991       101  POPC      H16X          -46.8228200503        7.7196671764       -0.5986352602  MEMB      101             0.0000000000
     10992       101  POPC      H16Y          -45.2017415865        7.9942333883       -1.2706763161  MEMB      101             0.0000000000
     10993       101  POPC      H16Z          -46.6751143460        8.7574900868       -2.0535068227  MEMB      101             0.0000000000
     10994       102  POPE      N             -12.8896303228       37.9736903750       19.3933164777  MEMB      102             0.0000000000
     10995       102  POPE      HN1           -12.5063889770       37.6451875850       20.3026084676  MEMB      102             0.0000000000
     10996       102  POPE      HN2           -13.6088413780       38.7187627648       19.4892452028  MEMB      102             0.0000000000
     10997       102  POPE      HN3           -13.3620475000       37.1968212358       18.8884439168  MEMB      102             0.0000000000
     10998       102  POPE      C12           -11.7009116234       38.4574054021       18.6103766207  MEMB      102             0.0000000000
     10999       102  POPE      H12A          -11.1360888633       39.2243428865       19.1823058279  MEMB      102             0.0000000000
     11000       102  POPE      H12B          -12.1352915971       38.8853684200       17.6816771169  MEMB      102             0.0000000000
     11001       102  POPE      C11           -10.7597251866       37.2196937257       18.1754781393  MEMB      102             0.0000000000
     11002       102  POPE      H11A          -10.0651189093       37.5619233013       17.3787837158  MEMB      102             0.0000000000
     11003       102  POPE      H11B          -11.4151905779       36.4731077408       17.6781900219  MEMB      102             0.0000000000
     11004       102  POPE      P              -9.2707853490       35.3701721478       19.2291611452  MEMB      102             0.0000000000
     11005       102  POPE      O13            -9.2927792974       34.5560561293       20.4730063673  MEMB      102             0.0000000000
     11006       102  POPE      O14            -7.9918387257       35.9358349615       18.8190376412  MEMB      102             0.0000000000
     11007       102  POPE      O11            -9.8387593290       34.6008586455       17.9875233235  MEMB      102             0.0000000000
     11008       102  POPE      O12           -10.1941693655       36.5891694110       19.3121002860  MEMB      102             0.0000000000
     11009       102  POPE      C1            -10.6770780602       33.4944719165       18.2040647039  MEMB      102             0.0000000000
     11010       102  POPE      HA            -11.1331673501       33.4380586120       19.2155591676  MEMB      102             0.0000000000
     11011       102  POPE      HB            -10.0300483939       32.6117258161       18.0131907853  MEMB      102             0.0000000000
     11012       102  POPE      C2            -11.9096508137       33.5418993958       17.1811893153  MEMB      102             0.0000000000
     11013       102  POPE      HS            -12.2724079334       32.5367397457       16.8772439610  MEMB      102             0.0000000000
     11014       102  POPE      O21           -11.6497369994       34.2107022539       15.9770843633  MEMB      102             0.0000000000
     11015       102  POPE      C21           -10.8978665478       33.5310948256       15.1696837894  MEMB      102             0.0000000000
     11016       102  POPE      O22           -10.2729848990       32.5163033538       15.3464717312  MEMB      102             0.0000000000
     11017       102  POPE      C22           -10.9644408080       34.2665999350       13.8020838753  MEMB      102             0.0000000000
     11018       102  POPE      H2R           -10.0255081083       34.8569633200       13.8668731684  MEMB      102             0.0000000000
     11019       102  POPE      H2S           -11.8412680795       34.9238765007       13.6191015047  MEMB      102             0.0000000000
     11020       102  POPE      C3            -13.0836676198       34.2519197309       17.8861311691  MEMB      102             0.0000000000
     11021       102  POPE      HX            -12.7383628287       35.0925722454       18.5251844442  MEMB      102             0.0000000000
     11022       102  POPE      HY            -13.6329865069       33.5651739634       18.5650641038  MEMB      102             0.0000000000
     11023       102  POPE      O31           -14.0175397985       34.7015585868       16.8054850792  MEMB      102             0.0000000000
     11024       102  POPE      C31           -14.8404161761       35.7235319959       17.1518210878  MEMB      102             0.0000000000
     11025       102  POPE      O32           -15.0495798226       36.2263096312       18.2257411613  MEMB      102             0.0000000000
     11026       102  POPE      C32           -15.4665336170       36.1840864695       15.8555948030  MEMB      102             0.0000000000
     11027       102  POPE      H2X           -15.9512738299       37.1642775235       16.0519962695  MEMB      102             0.0000000000
     11028       102  POPE      H2Y           -16.2728197787       35.5024088744       15.5098502956  MEMB      102             0.0000000000
     11029       102  POPE      C23           -10.8566359885       33.2975492377       12.6558836004  MEMB      102             0.0000000000
     11030       102  POPE      H3R           -11.4284348537       32.3485686293       12.7383648166  MEMB      102             0.0000000000
     11031       102  POPE      H3S            -9.8032333733       33.0156619137       12.4432723091  MEMB      102             0.0000000000
     11032       102  POPE      C24           -11.3896358513       33.8606936357       11.3641564356  MEMB      102             0.0000000000
     11033       102  POPE      H4R           -10.7879594771       34.7796635113       11.1974202081  MEMB      102             0.0000000000
     11034       102  POPE      H4S           -12.4156483943       34.2235566094       11.5876511439  MEMB      102             0.0000000000
     11035       102  POPE      C25           -11.1934468920       32.9461305442       10.1319173140  MEMB      102             0.0000000000
     11036       102  POPE      H5R           -11.5241739491       31.8902522883       10.2322242426  MEMB      102             0.0000000000
     11037       102  POPE      H5S           -10.1294019680       32.8628006533        9.8233949453  MEMB      102             0.0000000000
     11038       102  POPE      C26           -12.0057922094       33.4789842856        8.9006072306  MEMB      102             0.0000000000
     11039       102  POPE      H6R           -13.0475603438       33.2516448795        9.2126277137  MEMB      102             0.0000000000
     11040       102  POPE      H6S           -11.8026641788       32.8019221001        8.0434918303  MEMB      102             0.0000000000
     11041       102  POPE      C27           -11.7964240031       34.8807949135        8.5672165716  MEMB      102             0.0000000000
     11042       102  POPE      H7R           -12.1908553505       35.5391199904        9.3705549462  MEMB      102             0.0000000000
     11043       102  POPE      H7S           -12.4346584330       35.0633877236        7.6763531966  MEMB      102             0.0000000000
     11044       102  POPE      C28           -10.2740668652       35.3591211395        8.2805561590  MEMB      102             0.0000000000
     11045       102  POPE      H8R            -9.8046896459       34.7518113338        7.4773250439  MEMB      102             0.0000000000
     11046       102  POPE      H8S            -9.7190318086       35.1000719962        9.2074600051  MEMB      102             0.0000000000
     11047       102  POPE      C29           -10.2587373631       36.9085871760        8.1344086043  MEMB      102             0.0000000000
     11048       102  POPE      H91           -10.4559821044       37.5342090506        9.0174106995  MEMB      102             0.0000000000
     11049       102  POPE      C210           -9.9176437516       37.5758729625        6.9709364839  MEMB      102             0.0000000000
     11050       102  POPE      H101           -9.7289984386       38.6585951968        7.0170399341  MEMB      102             0.0000000000
     11051       102  POPE      C211           -9.5794493081       36.8865991939        5.6330316454  MEMB      102             0.0000000000
     11052       102  POPE      H11R           -8.7312335874       36.1971543101        5.8318202848  MEMB      102             0.0000000000
     11053       102  POPE      H11S           -9.2615667177       37.7128210993        4.9617422892  MEMB      102             0.0000000000
     11054       102  POPE      C212          -10.6822194535       35.9778023781        4.9859972967  MEMB      102             0.0000000000
     11055       102  POPE      H12R          -11.5358710545       36.6280238467        4.6982267915  MEMB      102             0.0000000000
     11056       102  POPE      H12S          -11.0492657783       35.2770949361        5.7661301353  MEMB      102             0.0000000000
     11057       102  POPE      C213           -9.9777939437       35.1510005716        3.8037115255  MEMB      102             0.0000000000
     11058       102  POPE      H13R          -10.6362292699       34.3228396758        3.4646928882  MEMB      102             0.0000000000
     11059       102  POPE      H13S           -9.0059802452       34.7362682610        4.1470716185  MEMB      102             0.0000000000
     11060       102  POPE      C214           -9.7077466348       36.0627605132        2.6373795127  MEMB      102             0.0000000000
     11061       102  POPE      H14R           -9.1364322933       36.9010608053        3.0903412930  MEMB      102             0.0000000000
     11062       102  POPE      H14S          -10.6813081594       36.3966610157        2.2190375195  MEMB      102             0.0000000000
     11063       102  POPE      C215           -8.9448772532       35.3078607858        1.4921408983  MEMB      102             0.0000000000
     11064       102  POPE      H15R           -8.2726449884       34.4884302303        1.8252470152  MEMB      102             0.0000000000
     11065       102  POPE      H15S           -8.2316983058       36.0474844788        1.0694684067  MEMB      102             0.0000000000
     11066       102  POPE      C216           -9.8817008046       34.7656870412        0.3793246660  MEMB      102             0.0000000000
     11067       102  POPE      H16R          -10.6717395822       35.5443597717        0.4412001912  MEMB      102             0.0000000000
     11068       102  POPE      H16S          -10.1756334795       33.7298377242        0.6530789701  MEMB      102             0.0000000000
     11069       102  POPE      C217           -9.1476416091       34.7644527117       -1.0023197298  MEMB      102             0.0000000000
     11070       102  POPE      H17R           -8.5941475383       35.7204990890       -1.1203903337  MEMB      102             0.0000000000
     11071       102  POPE      H17S           -9.8660353910       34.6884934050       -1.8463941997  MEMB      102             0.0000000000
     11072       102  POPE      C218           -8.1458721298       33.6492241463       -1.2074990471  MEMB      102             0.0000000000
     11073       102  POPE      H18R           -8.4501725814       32.8246892013       -0.5278925347  MEMB      102             0.0000000000
     11074       102  POPE      H18S           -7.1678812306       34.1236090399       -0.9776870742  MEMB      102             0.0000000000
     11075       102  POPE      H18T           -8.1602821767       33.2821286462       -2.2559992018  MEMB      102             0.0000000000
     11076       102  POPE      C33           -14.4302923857       36.2979201908       14.7418243224  MEMB      102             0.0000000000
     11077       102  POPE      H3X           -14.0557690746       35.2883091281       14.4684405749  MEMB      102             0.0000000000
     11078       102  POPE      H3Y           -13.6013867444       36.9488066517       15.0933682691  MEMB      102             0.0000000000
     11079       102  POPE      C34           -14.9532665472       36.8661699130       13.3848508594  MEMB      102             0.0000000000
     11080       102  POPE      H4X           -15.4726937713       37.8319420541       13.5631793217  MEMB      102             0.0000000000
     11081       102  POPE      H4Y           -15.7359277922       36.2178321227       12.9360519025  MEMB      102             0.0000000000
     11082       102  POPE      C35           -13.7914952490       37.3600090811       12.5030285864  MEMB      102             0.0000000000
     11083       102  POPE      H5X           -13.0136436812       36.5682903402       12.4535348462  MEMB      102             0.0000000000
     11084       102  POPE      H5Y           -13.3111548022       38.3001625298       12.8490136942  MEMB      102             0.0000000000
     11085       102  POPE      C36           -14.4072467996       37.5457689508       11.0905547481  MEMB      102             0.0000000000
     11086       102  POPE      H6X           -15.3266974978       38.1405883611       11.2779617506  MEMB      102             0.0000000000
     11087       102  POPE      H6Y           -14.5761689215       36.6333046519       10.4796583282  MEMB      102             0.0000000000
     11088       102  POPE      C37           -13.4257450240       38.3937826957       10.2115376863  MEMB      102             0.0000000000
     11089       102  POPE      H7X           -12.4003475675       37.9857544777       10.3395791025  MEMB      102             0.0000000000
     11090       102  POPE      H7Y           -13.4632318044       39.4115976016       10.6553493925  MEMB      102             0.0000000000
     11091       102  POPE      C38           -13.8637284105       38.5604822709        8.7778701900  MEMB      102             0.0000000000
     11092       102  POPE      H8X           -14.9062527237       38.9169995886        8.9205577997  MEMB      102             0.0000000000
     11093       102  POPE      H8Y           -14.0037294531       37.5379552381        8.3665806196  MEMB      102             0.0000000000
     11094       102  POPE      C39           -12.9656496202       39.3845343817        7.8666429487  MEMB      102             0.0000000000
     11095       102  POPE      H9X           -11.8607187913       39.4360443359        7.9705449383  MEMB      102             0.0000000000
     11096       102  POPE      H9Y           -13.2631899979       40.4328223151        8.0831683515  MEMB      102             0.0000000000
     11097       102  POPE      C310          -13.1727864788       39.2904010749        6.3791928641  MEMB      102             0.0000000000
     11098       102  POPE      H10X          -14.1821504904       39.6298106917        6.0624799522  MEMB      102             0.0000000000
     11099       102  POPE      H10Y          -13.2840564169       38.2329684332        6.0570492233  MEMB      102             0.0000000000
     11100       102  POPE      C311          -12.1878226897       40.0158097994        5.5956442681  MEMB      102             0.0000000000
     11101       102  POPE      H11X          -11.1291235456       39.6980126766        5.7073673605  MEMB      102             0.0000000000
     11102       102  POPE      H11Y          -12.1616356714       41.0483513138        6.0049036551  MEMB      102             0.0000000000
     11103       102  POPE      C312          -12.3960493891       40.1338077924        4.0579376083  MEMB      102             0.0000000000
     11104       102  POPE      H12X          -13.3917759672       40.6240149913        4.0074728685  MEMB      102             0.0000000000
     11105       102  POPE      H12Y          -12.5227889143       39.0859117016        3.7112789631  MEMB      102             0.0000000000
     11106       102  POPE      C313          -11.3466141494       40.8650531740        3.1883014199  MEMB      102             0.0000000000
     11107       102  POPE      H13X          -11.1177558700       41.8935566696        3.5406150411  MEMB      102             0.0000000000
     11108       102  POPE      H13Y          -11.9019404827       40.9106871932        2.2271286216  MEMB      102             0.0000000000
     11109       102  POPE      C314          -10.0524165398       39.9966099809        3.0427459229  MEMB      102             0.0000000000
     11110       102  POPE      H14X          -10.4623189894       38.9656715938        3.1016254537  MEMB      102             0.0000000000
     11111       102  POPE      H14Y           -9.6226011220       40.1943484647        4.0479717248  MEMB      102             0.0000000000
     11112       102  POPE      C315           -9.1886046182       40.3469894351        1.8942928534  MEMB      102             0.0000000000
     11113       102  POPE      H15X           -9.2955535991       41.4392754687        1.7216829346  MEMB      102             0.0000000000
     11114       102  POPE      H15Y           -9.4603906563       39.9118600585        0.9088412955  MEMB      102             0.0000000000
     11115       102  POPE      C316           -7.6717787746       40.1823735158        2.1555608780  MEMB      102             0.0000000000
     11116       102  POPE      H16X           -7.5128190724       39.1799061172        2.6073497799  MEMB      102             0.0000000000
     11117       102  POPE      H16Y           -7.3843288403       40.8888513336        2.9633868526  MEMB      102             0.0000000000
     11118       102  POPE      H16Z           -7.0306537504       40.1110732654        1.2510198576  MEMB      102             0.0000000000
     11119       103  POPE      N               5.3204449868      -38.8255172995       21.6887158609  MEMB      103             0.0000000000
     11120       103  POPE      HN1             4.3659010611      -39.0635284194       21.3513783952  MEMB      103             0.0000000000
     11121       103  POPE      HN2             5.8228486121      -39.5865536546       22.1887301485  MEMB      103             0.0000000000
     11122       103  POPE      HN3             5.2965594880      -38.0006693343       22.3216893759  MEMB      103             0.0000000000
     11123       103  POPE      C12             6.0905489501      -38.4018710085       20.4356142555  MEMB      103             0.0000000000
     11124       103  POPE      H12A            6.9841471610      -37.8296904787       20.7648747804  MEMB      103             0.0000000000
     11125       103  POPE      H12B            5.3531600133      -37.7241491288       19.9547073354  MEMB      103             0.0000000000
     11126       103  POPE      C11             6.5000041917      -39.4972835850       19.4467530363  MEMB      103             0.0000000000
     11127       103  POPE      H11A            7.2924252192      -40.2011631636       19.7798349963  MEMB      103             0.0000000000
     11128       103  POPE      H11B            6.9392136828      -38.8204884582       18.6829701583  MEMB      103             0.0000000000
     11129       103  POPE      P               5.3549174139      -41.3862031124       18.0614690704  MEMB      103             0.0000000000
     11130       103  POPE      O13             4.3548670384      -41.1366000144       17.0339046247  MEMB      103             0.0000000000
     11131       103  POPE      O14             5.2409509338      -42.6089907137       18.9048722391  MEMB      103             0.0000000000
     11132       103  POPE      O11             6.8027575601      -41.4538132187       17.4672275289  MEMB      103             0.0000000000
     11133       103  POPE      O12             5.3217298608      -40.0910554639       18.9614433647  MEMB      103             0.0000000000
     11134       103  POPE      C1              7.2071806339      -42.0584142504       16.2810785789  MEMB      103             0.0000000000
     11135       103  POPE      HA              6.3539363780      -42.6078713315       15.8289809556  MEMB      103             0.0000000000
     11136       103  POPE      HB              7.9562279617      -42.7930654784       16.6465050930  MEMB      103             0.0000000000
     11137       103  POPE      C2              7.7553221314      -41.0615678578       15.1885228546  MEMB      103             0.0000000000
     11138       103  POPE      HS              8.6794843479      -40.5744741878       15.5666561056  MEMB      103             0.0000000000
     11139       103  POPE      O21             6.7048559150      -40.2029131153       14.8019868996  MEMB      103             0.0000000000
     11140       103  POPE      C21             7.2471855323      -39.1017450771       14.2165367770  MEMB      103             0.0000000000
     11141       103  POPE      O22             8.4262225530      -38.8746910473       14.1692527499  MEMB      103             0.0000000000
     11142       103  POPE      C22             6.1578328248      -38.1061278619       13.7607124843  MEMB      103             0.0000000000
     11143       103  POPE      H2R             6.6088192374      -37.2147001818       13.2746168080  MEMB      103             0.0000000000
     11144       103  POPE      H2S             5.5595624432      -37.7171509526       14.6122351965  MEMB      103             0.0000000000
     11145       103  POPE      C3              8.0856848680      -41.9731888191       13.9839100675  MEMB      103             0.0000000000
     11146       103  POPE      HX              7.1459290586      -42.5345310296       13.7939760932  MEMB      103             0.0000000000
     11147       103  POPE      HY              8.8689529763      -42.7227168608       14.2268496564  MEMB      103             0.0000000000
     11148       103  POPE      O31             8.3499956214      -41.2924752917       12.7431518161  MEMB      103             0.0000000000
     11149       103  POPE      C31             9.6086798648      -40.8623701387       12.4345260398  MEMB      103             0.0000000000
     11150       103  POPE      O32            10.5408267393      -40.9501208646       13.1745349272  MEMB      103             0.0000000000
     11151       103  POPE      C32             9.4649675385      -40.1948605290       11.0676480737  MEMB      103             0.0000000000
     11152       103  POPE      H2X             8.4647296887      -39.7185041456       10.9844015485  MEMB      103             0.0000000000
     11153       103  POPE      H2Y             9.5493076419      -40.9401970763       10.2480862149  MEMB      103             0.0000000000
     11154       103  POPE      C23             5.1300609070      -38.7125024941       12.8475758724  MEMB      103             0.0000000000
     11155       103  POPE      H3R             4.3254745492      -38.0044441974       12.5549754460  MEMB      103             0.0000000000
     11156       103  POPE      H3S             4.5713268339      -39.4532331718       13.4586856301  MEMB      103             0.0000000000
     11157       103  POPE      C24             5.6783073719      -39.3841725484       11.5127129180  MEMB      103             0.0000000000
     11158       103  POPE      H4R             6.2301142358      -40.3104199704       11.7808475123  MEMB      103             0.0000000000
     11159       103  POPE      H4S             6.4270196475      -38.6745306972       11.1002092077  MEMB      103             0.0000000000
     11160       103  POPE      C25             4.5699885445      -39.8757501542       10.5469931589  MEMB      103             0.0000000000
     11161       103  POPE      H5R             3.8200074671      -39.0844760884       10.3331369715  MEMB      103             0.0000000000
     11162       103  POPE      H5S             3.8849136722      -40.5892732271       11.0528371021  MEMB      103             0.0000000000
     11163       103  POPE      C26             5.2050148834      -40.5111117820        9.2985786893  MEMB      103             0.0000000000
     11164       103  POPE      H6R             6.0511687938      -41.1631033659        9.6039502794  MEMB      103             0.0000000000
     11165       103  POPE      H6S             5.6090955414      -39.7468701771        8.6007424213  MEMB      103             0.0000000000
     11166       103  POPE      C27             4.2108215957      -41.3765989629        8.5549797123  MEMB      103             0.0000000000
     11167       103  POPE      H7R             3.4128828554      -40.7290961797        8.1326584316  MEMB      103             0.0000000000
     11168       103  POPE      H7S             3.8174209510      -42.0354955650        9.3583551586  MEMB      103             0.0000000000
     11169       103  POPE      C28             4.8374930219      -42.1739740892        7.4028995397  MEMB      103             0.0000000000
     11170       103  POPE      H8R             5.4029342979      -41.4906079585        6.7338637079  MEMB      103             0.0000000000
     11171       103  POPE      H8S             4.0592369202      -42.4849839642        6.6735769402  MEMB      103             0.0000000000
     11172       103  POPE      C29             5.8636356460      -43.2264996928        7.7094154221  MEMB      103             0.0000000000
     11173       103  POPE      H91             6.4591099223      -42.9685787833        8.5976080640  MEMB      103             0.0000000000
     11174       103  POPE      C210            6.1477544125      -44.3555560634        7.0775104106  MEMB      103             0.0000000000
     11175       103  POPE      H101            6.9455635605      -44.9525272626        7.5434779501  MEMB      103             0.0000000000
     11176       103  POPE      C211            5.3840834766      -44.7364832696        5.8165399701  MEMB      103             0.0000000000
     11177       103  POPE      H11R            4.8681213214      -43.9248062826        5.2604065071  MEMB      103             0.0000000000
     11178       103  POPE      H11S            4.7347024870      -45.6185184678        6.0026573216  MEMB      103             0.0000000000
     11179       103  POPE      C212            6.4404213197      -45.3009214440        4.8456887852  MEMB      103             0.0000000000
     11180       103  POPE      H12R            5.8504669545      -45.5048112796        3.9266105891  MEMB      103             0.0000000000
     11181       103  POPE      H12S            6.8756847781      -46.2768313911        5.1497717265  MEMB      103             0.0000000000
     11182       103  POPE      C213            7.5735873083      -44.3472298569        4.4136904023  MEMB      103             0.0000000000
     11183       103  POPE      H13R            8.2784780322      -44.1307698116        5.2447107228  MEMB      103             0.0000000000
     11184       103  POPE      H13S            7.2167462535      -43.3249338823        4.1649003970  MEMB      103             0.0000000000
     11185       103  POPE      C214            8.5303305147      -44.9142921916        3.3008374617  MEMB      103             0.0000000000
     11186       103  POPE      H14R            7.9627078999      -44.9983770520        2.3494936406  MEMB      103             0.0000000000
     11187       103  POPE      H14S            8.8895510467      -45.9529035574        3.4638351692  MEMB      103             0.0000000000
     11188       103  POPE      C215            9.6742503972      -44.0160447529        2.9380447527  MEMB      103             0.0000000000
     11189       103  POPE      H15R           10.3409889829      -43.8150330780        3.8037085575  MEMB      103             0.0000000000
     11190       103  POPE      H15S            9.1987944211      -43.0745813790        2.5888895227  MEMB      103             0.0000000000
     11191       103  POPE      C216           10.5203328329      -44.6121610876        1.8713353272  MEMB      103             0.0000000000
     11192       103  POPE      H16R           10.0134646193      -44.8271252238        0.9063508929  MEMB      103             0.0000000000
     11193       103  POPE      H16S           10.9929104352      -45.5730929847        2.1673105660  MEMB      103             0.0000000000
     11194       103  POPE      C217           11.7187556172      -43.7114713965        1.4326584080  MEMB      103             0.0000000000
     11195       103  POPE      H17R           11.3076937117      -42.7055057604        1.2016128774  MEMB      103             0.0000000000
     11196       103  POPE      H17S           12.3057497428      -44.0558476259        0.5544985388  MEMB      103             0.0000000000
     11197       103  POPE      C218           12.6499179297      -43.4409325428        2.6414499979  MEMB      103             0.0000000000
     11198       103  POPE      H18R           12.7959982128      -44.4303688714        3.1251831432  MEMB      103             0.0000000000
     11199       103  POPE      H18S           12.0751630901      -42.7322236588        3.2752548648  MEMB      103             0.0000000000
     11200       103  POPE      H18T           13.6188599894      -43.0035224362        2.3187360556  MEMB      103             0.0000000000
     11201       103  POPE      C33            10.4915476119      -39.0230277800       10.9398852298  MEMB      103             0.0000000000
     11202       103  POPE      H3X            11.5431092513      -39.2955807682       10.7069620200  MEMB      103             0.0000000000
     11203       103  POPE      H3Y            10.6135372087      -38.3870520348       11.8426449990  MEMB      103             0.0000000000
     11204       103  POPE      C34             9.9942302501      -37.9589542906        9.9294974474  MEMB      103             0.0000000000
     11205       103  POPE      H4X            10.5902034447      -37.0347931681       10.0878116059  MEMB      103             0.0000000000
     11206       103  POPE      H4Y             8.9335034897      -37.7257662356       10.1635962433  MEMB      103             0.0000000000
     11207       103  POPE      C35            10.2263522987      -38.3834898541        8.5649816420  MEMB      103             0.0000000000
     11208       103  POPE      H5X             9.7665983078      -39.3783085353        8.3825457616  MEMB      103             0.0000000000
     11209       103  POPE      H5Y            11.3269081649      -38.5346523239        8.5492402796  MEMB      103             0.0000000000
     11210       103  POPE      C36             9.7327656947      -37.5049677448        7.4444382120  MEMB      103             0.0000000000
     11211       103  POPE      H6X            10.3986150246      -36.6156992368        7.4573815148  MEMB      103             0.0000000000
     11212       103  POPE      H6Y             8.6439816630      -37.2958687880        7.5161883544  MEMB      103             0.0000000000
     11213       103  POPE      C37             9.8058485044      -38.2977821172        6.0705779278  MEMB      103             0.0000000000
     11214       103  POPE      H7X             9.6596930135      -37.6291077102        5.1954580726  MEMB      103             0.0000000000
     11215       103  POPE      H7Y             9.0187818649      -39.0790452651        6.1374706892  MEMB      103             0.0000000000
     11216       103  POPE      C38            11.2156123986      -38.9005560700        5.8753860030  MEMB      103             0.0000000000
     11217       103  POPE      H8X            11.3739683654      -39.6397848047        6.6895024516  MEMB      103             0.0000000000
     11218       103  POPE      H8Y            11.8869898662      -38.0598802008        6.1525806543  MEMB      103             0.0000000000
     11219       103  POPE      C39            11.4908938673      -39.5576473750        4.5264377107  MEMB      103             0.0000000000
     11220       103  POPE      H9X            10.9511503426      -40.5250873198        4.4424259187  MEMB      103             0.0000000000
     11221       103  POPE      H9Y            12.5854972904      -39.7026402924        4.4033829427  MEMB      103             0.0000000000
     11222       103  POPE      C310           10.9039835529      -38.9090915442        3.2285977929  MEMB      103             0.0000000000
     11223       103  POPE      H10X           11.5447751234      -38.0289746191        3.0070104700  MEMB      103             0.0000000000
     11224       103  POPE      H10Y            9.9208248270      -38.4235201311        3.4073159940  MEMB      103             0.0000000000
     11225       103  POPE      C311           10.8175897895      -39.8708316608        2.0362393893  MEMB      103             0.0000000000
     11226       103  POPE      H11X           10.5534616985      -40.8983984412        2.3658814437  MEMB      103             0.0000000000
     11227       103  POPE      H11Y           11.8107284432      -39.9889035543        1.5524458590  MEMB      103             0.0000000000
     11228       103  POPE      C312            9.9409521649      -39.2836738808        0.9622831041  MEMB      103             0.0000000000
     11229       103  POPE      H12X           10.2641168981      -38.2838206446        0.6014800101  MEMB      103             0.0000000000
     11230       103  POPE      H12Y            8.9526405088      -39.3506808459        1.4653441701  MEMB      103             0.0000000000
     11231       103  POPE      C313            9.9821041935      -40.2473182561       -0.2182536750  MEMB      103             0.0000000000
     11232       103  POPE      H13X            8.9405875270      -40.5524868690       -0.4558170045  MEMB      103             0.0000000000
     11233       103  POPE      H13Y           10.5409700540      -41.1539252887        0.0980590325  MEMB      103             0.0000000000
     11234       103  POPE      C314           10.5546433047      -39.6330562192       -1.5532513964  MEMB      103             0.0000000000
     11235       103  POPE      H14X           11.5734513428      -39.2369803306       -1.3545679059  MEMB      103             0.0000000000
     11236       103  POPE      H14Y            9.8611201549      -38.8180832896       -1.8518581312  MEMB      103             0.0000000000
     11237       103  POPE      C315           10.7031199836      -40.5712580363       -2.7123050394  MEMB      103             0.0000000000
     11238       103  POPE      H15X           11.3314545377      -41.4494596200       -2.4510032045  MEMB      103             0.0000000000
     11239       103  POPE      H15Y           11.2453158369      -39.9739697391       -3.4762354770  MEMB      103             0.0000000000
     11240       103  POPE      C316            9.3484208501      -40.9518690010       -3.3803540808  MEMB      103             0.0000000000
     11241       103  POPE      H16X            8.9085736039      -40.0448879856       -3.8475158279  MEMB      103             0.0000000000
     11242       103  POPE      H16Y            8.5592795327      -41.3363620556       -2.6993673607  MEMB      103             0.0000000000
     11243       103  POPE      H16Z            9.3629666333      -41.7694188326       -4.1324978382  MEMB      103             0.0000000000
     11244       104  POPC      N             -10.9696270203      -38.8527584301       19.4710158142  MEMB      104             0.0000000000
     11245       104  POPC      C12           -10.9022245289      -39.9163288390       18.3636340216  MEMB      104             0.0000000000
     11246       104  POPC      H12A          -11.3843227548      -39.4747818285       17.5039726154  MEMB      104             0.0000000000
     11247       104  POPC      H12B          -11.5897102898      -40.7103637218       18.6151736877  MEMB      104             0.0000000000
     11248       104  POPC      C13           -10.5468479257      -39.5186001588       20.7171269552  MEMB      104             0.0000000000
     11249       104  POPC      H13A          -11.1714292747      -40.3802708598       20.9010336655  MEMB      104             0.0000000000
     11250       104  POPC      H13B           -9.5457240339      -39.9190439542       20.6555162494  MEMB      104             0.0000000000
     11251       104  POPC      H13C          -10.5966404826      -38.8518826578       21.5653065366  MEMB      104             0.0000000000
     11252       104  POPC      C14            -9.9249178244      -37.8841223094       19.1873611355  MEMB      104             0.0000000000
     11253       104  POPC      H14A           -8.9781045511      -38.4004973706       19.2448168788  MEMB      104             0.0000000000
     11254       104  POPC      H14B          -10.0708121565      -37.5354535840       18.1756570986  MEMB      104             0.0000000000
     11255       104  POPC      H14C          -10.0489388755      -37.1399127171       19.9601296165  MEMB      104             0.0000000000
     11256       104  POPC      C15           -12.3728706618      -38.3750976378       19.6496491171  MEMB      104             0.0000000000
     11257       104  POPC      H15A          -12.3685316974      -37.6472335924       20.4475182122  MEMB      104             0.0000000000
     11258       104  POPC      H15B          -13.0016480257      -39.2448662894       19.7702376810  MEMB      104             0.0000000000
     11259       104  POPC      H15C          -12.7667879750      -37.9061479338       18.7600901874  MEMB      104             0.0000000000
     11260       104  POPC      C11            -9.6344586387      -40.6784305581       17.9524697488  MEMB      104             0.0000000000
     11261       104  POPC      H11A           -9.0668447523      -39.9087777165       17.3869876914  MEMB      104             0.0000000000
     11262       104  POPC      H11B           -9.9725454905      -41.5275314575       17.3207690252  MEMB      104             0.0000000000
     11263       104  POPC      P              -7.5711804470      -41.8018664617       18.7467238082  MEMB      104             0.0000000000
     11264       104  POPC      O13            -7.6692530645      -42.8281612014       17.6691882582  MEMB      104             0.0000000000
     11265       104  POPC      O14            -6.9250580679      -42.2374556823       19.9706642128  MEMB      104             0.0000000000
     11266       104  POPC      O12            -9.0183724065      -41.2107682003       19.0461489413  MEMB      104             0.0000000000
     11267       104  POPC      O11            -6.9270401106      -40.4357648090       18.2260179363  MEMB      104             0.0000000000
     11268       104  POPC      C1             -5.9791258841      -39.7267156540       19.0379893236  MEMB      104             0.0000000000
     11269       104  POPC      HA             -5.4144313757      -40.4824068372       19.6248214972  MEMB      104             0.0000000000
     11270       104  POPC      HB             -6.4155658785      -39.0368362015       19.7915856842  MEMB      104             0.0000000000
     11271       104  POPC      C2             -5.0354936322      -38.8863303593       18.1603337389  MEMB      104             0.0000000000
     11272       104  POPC      HS             -4.7802927607      -37.9810166004       18.7516039336  MEMB      104             0.0000000000
     11273       104  POPC      O21            -5.7341006309      -38.4862342744       16.9478917214  MEMB      104             0.0000000000
     11274       104  POPC      C21            -6.5278249545      -37.4379006960       16.9057539202  MEMB      104             0.0000000000
     11275       104  POPC      O22            -6.8257746328      -36.6824815520       17.8343784299  MEMB      104             0.0000000000
     11276       104  POPC      C22            -7.0101335513      -37.2298953668       15.5241005692  MEMB      104             0.0000000000
     11277       104  POPC      H2R            -7.2425356909      -38.2520967484       15.1561133179  MEMB      104             0.0000000000
     11278       104  POPC      H2S            -6.1520198800      -36.8194363530       14.9500926854  MEMB      104             0.0000000000
     11279       104  POPC      C3             -3.7804595171      -39.5342169661       17.7101218367  MEMB      104             0.0000000000
     11280       104  POPC      HX             -3.0995138910      -39.6377471827       18.5818529947  MEMB      104             0.0000000000
     11281       104  POPC      HY             -3.3014296581      -38.8114540299       17.0155249244  MEMB      104             0.0000000000
     11282       104  POPC      O31            -4.0161772093      -40.8509979082       17.1551545645  MEMB      104             0.0000000000
     11283       104  POPC      C31            -4.4168696411      -40.9633349358       15.9026797607  MEMB      104             0.0000000000
     11284       104  POPC      O32            -4.2786442176      -40.0600829797       15.0263502654  MEMB      104             0.0000000000
     11285       104  POPC      C32            -4.7075383893      -42.4152425960       15.6839886286  MEMB      104             0.0000000000
     11286       104  POPC      H2X            -5.5208342222      -42.7243099315       16.3748924277  MEMB      104             0.0000000000
     11287       104  POPC      H2Y            -3.7558720218      -42.9593232759       15.8646219199  MEMB      104             0.0000000000
     11288       104  POPC      C23            -8.1431773381      -36.2179136288       15.3799139450  MEMB      104             0.0000000000
     11289       104  POPC      H3R            -7.6209892202      -35.2507306158       15.5417700916  MEMB      104             0.0000000000
     11290       104  POPC      H3S            -9.0041238210      -36.3672240129       16.0660616545  MEMB      104             0.0000000000
     11291       104  POPC      C24            -8.6141849244      -36.0282790001       13.8942047250  MEMB      104             0.0000000000
     11292       104  POPC      H4R            -7.6717575546      -36.0306719663       13.3058628142  MEMB      104             0.0000000000
     11293       104  POPC      H4S            -9.2050160867      -35.0913555973       13.8081006094  MEMB      104             0.0000000000
     11294       104  POPC      C25            -9.3522510105      -37.2825768973       13.4345903790  MEMB      104             0.0000000000
     11295       104  POPC      H5R           -10.2112620290      -37.4371893382       14.1219882604  MEMB      104             0.0000000000
     11296       104  POPC      H5S            -8.7035594559      -38.1830990350       13.3837974784  MEMB      104             0.0000000000
     11297       104  POPC      C26            -9.9974457824      -37.1628256012       12.0921052418  MEMB      104             0.0000000000
     11298       104  POPC      H6R           -10.5806767598      -36.2173685165       12.0755673163  MEMB      104             0.0000000000
     11299       104  POPC      H6S           -10.6438903749      -38.0509704866       11.9258849449  MEMB      104             0.0000000000
     11300       104  POPC      C27            -9.0164257832      -37.1748230775       10.8766682680  MEMB      104             0.0000000000
     11301       104  POPC      H7R            -8.4298834870      -38.1113172767       10.9918540310  MEMB      104             0.0000000000
     11302       104  POPC      H7S            -8.4079840371      -36.2455033829       10.8546632471  MEMB      104             0.0000000000
     11303       104  POPC      C28            -9.6551195277      -37.4789806736        9.5109015695  MEMB      104             0.0000000000
     11304       104  POPC      H8R           -10.2821532403      -38.3945584142        9.4573548938  MEMB      104             0.0000000000
     11305       104  POPC      H8S            -8.8701322751      -37.7629534695        8.7777744015  MEMB      104             0.0000000000
     11306       104  POPC      C29           -10.5386378908      -36.3362854037        9.0312047099  MEMB      104             0.0000000000
     11307       104  POPC      H91           -10.8751699036      -35.6580690055        9.8291827350  MEMB      104             0.0000000000
     11308       104  POPC      C210          -10.9136000495      -36.0971441669        7.7106311191  MEMB      104             0.0000000000
     11309       104  POPC      H101          -11.6437113948      -35.2948864372        7.5280921065  MEMB      104             0.0000000000
     11310       104  POPC      C211          -10.5289063255      -36.8890542217        6.5489778859  MEMB      104             0.0000000000
     11311       104  POPC      H11R           -9.6078389471      -37.5046578955        6.6325729073  MEMB      104             0.0000000000
     11312       104  POPC      H11S          -10.5051761756      -36.3121335753        5.5998104085  MEMB      104             0.0000000000
     11313       104  POPC      C212          -11.5472733325      -38.0433539863        6.2278395677  MEMB      104             0.0000000000
     11314       104  POPC      H12R          -12.5428703143      -37.5504951448        6.2419186027  MEMB      104             0.0000000000
     11315       104  POPC      H12S          -11.6192343303      -38.9171447618        6.9102119482  MEMB      104             0.0000000000
     11316       104  POPC      C213          -11.4642917137      -38.6304806154        4.7526820441  MEMB      104             0.0000000000
     11317       104  POPC      H13R          -10.6461952770      -39.3757747585        4.6548251875  MEMB      104             0.0000000000
     11318       104  POPC      H13S          -11.1543909946      -37.7885289308        4.0973963265  MEMB      104             0.0000000000
     11319       104  POPC      C214          -12.8440272883      -39.0324116891        4.2541644616  MEMB      104             0.0000000000
     11320       104  POPC      H14R          -13.5987629729      -38.2295956380        4.3962257080  MEMB      104             0.0000000000
     11321       104  POPC      H14S          -13.1476800652      -39.9276468859        4.8378341053  MEMB      104             0.0000000000
     11322       104  POPC      C215          -12.9245354549      -39.5429711440        2.8286828223  MEMB      104             0.0000000000
     11323       104  POPC      H15R          -12.9930998471      -38.6410656978        2.1835565783  MEMB      104             0.0000000000
     11324       104  POPC      H15S          -13.7813852084      -40.2213436876        2.6288324062  MEMB      104             0.0000000000
     11325       104  POPC      C216          -11.7271211168      -40.3426784593        2.2915269437  MEMB      104             0.0000000000
     11326       104  POPC      H16R          -11.6990386858      -41.3059043292        2.8444531634  MEMB      104             0.0000000000
     11327       104  POPC      H16S          -10.7642335397      -39.7940125199        2.3698488416  MEMB      104             0.0000000000
     11328       104  POPC      C217          -11.9298412753      -40.6131393571        0.7679984231  MEMB      104             0.0000000000
     11329       104  POPC      H17R          -12.2043956184      -39.6856274628        0.2214988544  MEMB      104             0.0000000000
     11330       104  POPC      H17S          -12.7271415339      -41.3867898390        0.7580881011  MEMB      104             0.0000000000
     11331       104  POPC      C218          -10.6920283459      -41.2056203962        0.0838062540  MEMB      104             0.0000000000
     11332       104  POPC      H18R          -10.9725412486      -41.5956521436       -0.9179469322  MEMB      104             0.0000000000
     11333       104  POPC      H18S          -10.3773462338      -42.0588180307        0.7220463720  MEMB      104             0.0000000000
     11334       104  POPC      H18T           -9.8590522345      -40.4992399509       -0.1199045683  MEMB      104             0.0000000000
     11335       104  POPC      C33            -5.0998052769      -42.6269826035       14.1724945554  MEMB      104             0.0000000000
     11336       104  POPC      H3X            -4.8716392742      -43.6964760334       13.9764207069  MEMB      104             0.0000000000
     11337       104  POPC      H3Y            -4.3751315777      -42.0648698809       13.5454394331  MEMB      104             0.0000000000
     11338       104  POPC      C34            -6.5277690787      -42.1170064342       13.8928394955  MEMB      104             0.0000000000
     11339       104  POPC      H4X            -6.6659305090      -41.0172838930       13.9692777803  MEMB      104             0.0000000000
     11340       104  POPC      H4Y            -7.1453889372      -42.5977618766       14.6813449298  MEMB      104             0.0000000000
     11341       104  POPC      C35            -7.1104991766      -42.5561880597       12.5521578730  MEMB      104             0.0000000000
     11342       104  POPC      H5X            -8.2183398313      -42.6315211518       12.5156181059  MEMB      104             0.0000000000
     11343       104  POPC      H5Y            -6.6319614088      -43.5504106412       12.4223721673  MEMB      104             0.0000000000
     11344       104  POPC      C36            -6.6508193992      -41.6992110952       11.3823413409  MEMB      104             0.0000000000
     11345       104  POPC      H6X            -5.5409379743      -41.7289466844       11.3423463769  MEMB      104             0.0000000000
     11346       104  POPC      H6Y            -6.8809618806      -40.6224848629       11.5307201832  MEMB      104             0.0000000000
     11347       104  POPC      C37            -7.2338954389      -42.0286054966       10.0480646740  MEMB      104             0.0000000000
     11348       104  POPC      H7X            -8.2871522246      -41.6844267380       10.1287612659  MEMB      104             0.0000000000
     11349       104  POPC      H7Y            -7.2731165797      -43.1377987964        9.9983372341  MEMB      104             0.0000000000
     11350       104  POPC      C38            -6.4008768584      -41.4486580759        8.9202961570  MEMB      104             0.0000000000
     11351       104  POPC      H8X            -5.4023327545      -41.8920412339        9.1218966409  MEMB      104             0.0000000000
     11352       104  POPC      H8Y            -6.3213442186      -40.3405984752        8.9344202721  MEMB      104             0.0000000000
     11353       104  POPC      C39            -6.6156692679      -41.8867622239        7.4937630959  MEMB      104             0.0000000000
     11354       104  POPC      H9X            -6.7064363263      -42.9936830170        7.4653205847  MEMB      104             0.0000000000
     11355       104  POPC      H9Y            -5.7179348983      -41.7159393023        6.8619301332  MEMB      104             0.0000000000
     11356       104  POPC      C310           -7.9151924233      -41.3915140979        6.8706904183  MEMB      104             0.0000000000
     11357       104  POPC      H10X           -8.1059752686      -40.3569198091        7.2278139313  MEMB      104             0.0000000000
     11358       104  POPC      H10Y           -8.6982301799      -42.0273834706        7.3363544141  MEMB      104             0.0000000000
     11359       104  POPC      C311           -8.1575914631      -41.5678531245        5.3882851285  MEMB      104             0.0000000000
     11360       104  POPC      H11X           -9.1252477737      -41.1457017794        5.0422353643  MEMB      104             0.0000000000
     11361       104  POPC      H11Y           -8.1557823343      -42.6226493313        5.0393978802  MEMB      104             0.0000000000
     11362       104  POPC      C312           -7.2297902073      -40.8509832259        4.4090409915  MEMB      104             0.0000000000
     11363       104  POPC      H12X           -7.5827513389      -41.0948132568        3.3842066790  MEMB      104             0.0000000000
     11364       104  POPC      H12Y           -6.2288406789      -41.2907142943        4.6066699351  MEMB      104             0.0000000000
     11365       104  POPC      C313           -7.2730425062      -39.2837270356        4.7093808111  MEMB      104             0.0000000000
     11366       104  POPC      H13X           -7.0411975573      -39.0400867177        5.7682525841  MEMB      104             0.0000000000
     11367       104  POPC      H13Y           -8.3767113059      -39.1713806629        4.6492599867  MEMB      104             0.0000000000
     11368       104  POPC      C314           -6.3282211742      -38.4881410401        3.8079381972  MEMB      104             0.0000000000
     11369       104  POPC      H14X           -5.4111525946      -39.0214125836        4.1379802306  MEMB      104             0.0000000000
     11370       104  POPC      H14Y           -6.2544649437      -37.4606158366        4.2239583488  MEMB      104             0.0000000000
     11371       104  POPC      C315           -6.8735866646      -38.6041125705        2.3818045720  MEMB      104             0.0000000000
     11372       104  POPC      H15X           -7.1848511976      -39.6240494285        2.0700928877  MEMB      104             0.0000000000
     11373       104  POPC      H15Y           -6.0325241943      -38.2492907039        1.7485297800  MEMB      104             0.0000000000
     11374       104  POPC      C316           -8.0965095882      -37.7355541890        2.1719254875  MEMB      104             0.0000000000
     11375       104  POPC      H16X           -8.7067770268      -38.0899768398        1.3138576665  MEMB      104             0.0000000000
     11376       104  POPC      H16Y           -7.9556321599      -36.6498686446        1.9828173663  MEMB      104             0.0000000000
     11377       104  POPC      H16Z           -8.7907533259      -37.6659681743        3.0365090267  MEMB      104             0.0000000000
     11378       105  POPC      N              41.1649730934        6.7651014493       20.8637775675  MEMB      105             0.0000000000
     11379       105  POPC      C12            40.6893418449        5.4029000405       20.2602854285  MEMB      105             0.0000000000
     11380       105  POPC      H12A           39.6135915132        5.3073150635       20.2552928266  MEMB      105             0.0000000000
     11381       105  POPC      H12B           41.0422462097        4.6224933225       20.9181790593  MEMB      105             0.0000000000
     11382       105  POPC      C13            40.7855163482        7.9233361161       19.9710349814  MEMB      105             0.0000000000
     11383       105  POPC      H13A           39.7231490494        8.0092310271       19.7966857287  MEMB      105             0.0000000000
     11384       105  POPC      H13B           41.1043855502        8.8793157902       20.3593975098  MEMB      105             0.0000000000
     11385       105  POPC      H13C           41.2074222224        7.8046971010       18.9839583765  MEMB      105             0.0000000000
     11386       105  POPC      C14            40.4794002566        7.0358251988       22.1600689000  MEMB      105             0.0000000000
     11387       105  POPC      H14A           40.9002710347        6.3197393340       22.8503505791  MEMB      105             0.0000000000
     11388       105  POPC      H14B           40.8193949707        7.9499491635       22.6239448580  MEMB      105             0.0000000000
     11389       105  POPC      H14C           39.4056048576        7.0904199477       22.0581742021  MEMB      105             0.0000000000
     11390       105  POPC      C15            42.6558534019        6.7810243180       21.0595409405  MEMB      105             0.0000000000
     11391       105  POPC      H15A           42.8783655394        6.1057177853       21.8724673921  MEMB      105             0.0000000000
     11392       105  POPC      H15B           42.9683068041        7.7155061859       21.5017137420  MEMB      105             0.0000000000
     11393       105  POPC      H15C           43.2374388558        6.5230156549       20.1868499203  MEMB      105             0.0000000000
     11394       105  POPC      C11            41.0257559931        5.0255212464       18.8385612373  MEMB      105             0.0000000000
     11395       105  POPC      H11A           40.4317827835        5.7107773450       18.1967350316  MEMB      105             0.0000000000
     11396       105  POPC      H11B           40.5998532792        4.0215791279       18.6263625933  MEMB      105             0.0000000000
     11397       105  POPC      P              42.7478812513        4.4760429801       17.1132744802  MEMB      105             0.0000000000
     11398       105  POPC      O13            41.5078822351        4.0409208411       16.3962269423  MEMB      105             0.0000000000
     11399       105  POPC      O14            43.8212459200        3.4680513946       17.4161252234  MEMB      105             0.0000000000
     11400       105  POPC      O12            42.3854491562        5.1003282825       18.5282802253  MEMB      105             0.0000000000
     11401       105  POPC      O11            43.3067342257        5.7690124812       16.3928241200  MEMB      105             0.0000000000
     11402       105  POPC      C1             44.2149345568        6.6682046961       17.1213055436  MEMB      105             0.0000000000
     11403       105  POPC      HA             44.6440528905        6.2264491645       18.0459841406  MEMB      105             0.0000000000
     11404       105  POPC      HB             43.6482455970        7.5423957039       17.5072780005  MEMB      105             0.0000000000
     11405       105  POPC      C2             45.4421529985        6.9930622585       16.2251684886  MEMB      105             0.0000000000
     11406       105  POPC      HS             45.8695295589        7.9362716665       16.6276931425  MEMB      105             0.0000000000
     11407       105  POPC      O21            45.1227403487        7.1343343680       14.9324285177  MEMB      105             0.0000000000
     11408       105  POPC      C21            44.2021323700        8.0220070978       14.6622415004  MEMB      105             0.0000000000
     11409       105  POPC      O22            43.7954504744        8.8774990427       15.4037353611  MEMB      105             0.0000000000
     11410       105  POPC      C22            43.8051928838        7.9079527793       13.1167253776  MEMB      105             0.0000000000
     11411       105  POPC      H2R            43.9958031592        6.8349275576       12.9008422469  MEMB      105             0.0000000000
     11412       105  POPC      H2S            44.4436819269        8.6435137276       12.5823072732  MEMB      105             0.0000000000
     11413       105  POPC      C3             46.4912191878        5.7588069454       16.2007521015  MEMB      105             0.0000000000
     11414       105  POPC      HX             46.8547276402        5.5219282886       17.2235283002  MEMB      105             0.0000000000
     11415       105  POPC      HY             47.3513794196        6.0514200645       15.5613591710  MEMB      105             0.0000000000
     11416       105  POPC      O31            45.8867386979        4.5914989343       15.6434757270  MEMB      105             0.0000000000
     11417       105  POPC      C31            46.1064654831        4.2804480959       14.4095805766  MEMB      105             0.0000000000
     11418       105  POPC      O32            46.9034166413        4.8098017375       13.6463615303  MEMB      105             0.0000000000
     11419       105  POPC      C32            45.3771954606        2.9609863212       13.9734199328  MEMB      105             0.0000000000
     11420       105  POPC      H2X            44.2831090969        3.1477620360       14.0225202098  MEMB      105             0.0000000000
     11421       105  POPC      H2Y            45.5300729625        2.1313303363       14.6963448252  MEMB      105             0.0000000000
     11422       105  POPC      C23            42.3092317522        8.2767546005       12.7761193993  MEMB      105             0.0000000000
     11423       105  POPC      H3R            42.3910219585        8.4302642187       11.6788195588  MEMB      105             0.0000000000
     11424       105  POPC      H3S            42.2403448592        9.3060790084       13.1885104371  MEMB      105             0.0000000000
     11425       105  POPC      C24            41.2724462251        7.2652298260       13.2571114312  MEMB      105             0.0000000000
     11426       105  POPC      H4R            40.2634837016        7.6719192736       13.0314584614  MEMB      105             0.0000000000
     11427       105  POPC      H4S            41.3164722514        7.2432855761       14.3670220982  MEMB      105             0.0000000000
     11428       105  POPC      C25            41.4687143160        5.8518559841       12.7325565546  MEMB      105             0.0000000000
     11429       105  POPC      H5R            42.3843557716        5.3354440611       13.0920571855  MEMB      105             0.0000000000
     11430       105  POPC      H5S            41.5862632025        5.9090106782       11.6292723972  MEMB      105             0.0000000000
     11431       105  POPC      C26            40.3021756240        4.8798973242       13.2037283348  MEMB      105             0.0000000000
     11432       105  POPC      H6R            39.4214723027        5.3395884432       12.7063685605  MEMB      105             0.0000000000
     11433       105  POPC      H6S            40.1845035244        4.8938234029       14.3083913367  MEMB      105             0.0000000000
     11434       105  POPC      C27            40.4723533768        3.3867530969       12.7398443540  MEMB      105             0.0000000000
     11435       105  POPC      H7R            39.5532952915        2.8371011654       13.0357099376  MEMB      105             0.0000000000
     11436       105  POPC      H7S            41.2875608798        2.9765231078       13.3734605163  MEMB      105             0.0000000000
     11437       105  POPC      C28            40.7321428657        3.1065542227       11.2730389765  MEMB      105             0.0000000000
     11438       105  POPC      H8R            40.7913330918        2.0023749536       11.1653095960  MEMB      105             0.0000000000
     11439       105  POPC      H8S            41.7583376261        3.4337945425       11.0007173140  MEMB      105             0.0000000000
     11440       105  POPC      C29            39.5948351600        3.3964587451       10.3143158485  MEMB      105             0.0000000000
     11441       105  POPC      H91            38.8350299132        2.6012950003       10.2940614257  MEMB      105             0.0000000000
     11442       105  POPC      C210           39.5739952679        4.3171296043        9.3224818046  MEMB      105             0.0000000000
     11443       105  POPC      H101           38.6047915137        4.5797937619        8.8734257997  MEMB      105             0.0000000000
     11444       105  POPC      C211           40.6810293706        5.1925333604        8.8602091518  MEMB      105             0.0000000000
     11445       105  POPC      H11R           41.5049746712        5.1949408271        9.6054802969  MEMB      105             0.0000000000
     11446       105  POPC      H11S           40.3060095367        6.2373876971        8.8159311070  MEMB      105             0.0000000000
     11447       105  POPC      C212           41.2932463603        4.7354624994        7.4384619592  MEMB      105             0.0000000000
     11448       105  POPC      H12R           42.1686742847        5.3724810059        7.1891546974  MEMB      105             0.0000000000
     11449       105  POPC      H12S           40.5766268634        5.0679080324        6.6572728947  MEMB      105             0.0000000000
     11450       105  POPC      C213           41.5546097296        3.2101422901        7.4304419317  MEMB      105             0.0000000000
     11451       105  POPC      H13R           40.6837433826        2.5204497923        7.4458291611  MEMB      105             0.0000000000
     11452       105  POPC      H13S           42.2443964290        2.9844377287        8.2716153144  MEMB      105             0.0000000000
     11453       105  POPC      C214           42.3233008800        2.8334828457        6.1792112662  MEMB      105             0.0000000000
     11454       105  POPC      H14R           42.6068727460        1.7601236270        6.2217329907  MEMB      105             0.0000000000
     11455       105  POPC      H14S           43.3019703649        3.3528522009        6.0968552761  MEMB      105             0.0000000000
     11456       105  POPC      C215           41.5681029016        3.0494945398        4.8767060061  MEMB      105             0.0000000000
     11457       105  POPC      H15R           41.5369456013        4.1370064692        4.6516108605  MEMB      105             0.0000000000
     11458       105  POPC      H15S           40.5319251712        2.7191803460        5.1037497641  MEMB      105             0.0000000000
     11459       105  POPC      C216           42.1513395514        2.4340005225        3.5977993891  MEMB      105             0.0000000000
     11460       105  POPC      H16R           42.3197740466        1.3461656431        3.7480196924  MEMB      105             0.0000000000
     11461       105  POPC      H16S           43.0659699284        3.0184458908        3.3607429275  MEMB      105             0.0000000000
     11462       105  POPC      C217           41.1901925726        2.6380454833        2.3785377939  MEMB      105             0.0000000000
     11463       105  POPC      H17R           41.8676539492        2.4071565087        1.5287970462  MEMB      105             0.0000000000
     11464       105  POPC      H17S           40.8439005831        3.6912058450        2.3060387105  MEMB      105             0.0000000000
     11465       105  POPC      C218           39.9539541019        1.7162204683        2.3661915929  MEMB      105             0.0000000000
     11466       105  POPC      H18R           39.3986507621        1.7485069497        3.3279170174  MEMB      105             0.0000000000
     11467       105  POPC      H18S           40.2746692683        0.6946127394        2.0699135767  MEMB      105             0.0000000000
     11468       105  POPC      H18T           39.1641096082        2.1071964936        1.6897259570  MEMB      105             0.0000000000
     11469       105  POPC      C33            45.6683839308        2.5906612694       12.5510927841  MEMB      105             0.0000000000
     11470       105  POPC      H3X            45.4926660345        1.4980756634       12.4526007039  MEMB      105             0.0000000000
     11471       105  POPC      H3Y            46.7248129488        2.6555789510       12.2133582272  MEMB      105             0.0000000000
     11472       105  POPC      C34            44.8329933163        3.3658117106       11.4767329323  MEMB      105             0.0000000000
     11473       105  POPC      H4X            43.8060755319        3.4422557159       11.8937668018  MEMB      105             0.0000000000
     11474       105  POPC      H4Y            44.8190493237        2.6601112898       10.6187625612  MEMB      105             0.0000000000
     11475       105  POPC      C35            45.3104436313        4.7008260148       10.9618718102  MEMB      105             0.0000000000
     11476       105  POPC      H5X            46.3624709707        4.6161558867       10.6148975319  MEMB      105             0.0000000000
     11477       105  POPC      H5Y            45.3247882402        5.4898621154       11.7438800820  MEMB      105             0.0000000000
     11478       105  POPC      C36            44.4841519354        5.3276447880        9.8353478605  MEMB      105             0.0000000000
     11479       105  POPC      H6X            43.4546408231        5.5931101224       10.1577700674  MEMB      105             0.0000000000
     11480       105  POPC      H6Y            44.4607063430        4.5474399288        9.0447456402  MEMB      105             0.0000000000
     11481       105  POPC      C37            45.1663259778        6.6228949895        9.2320687917  MEMB      105             0.0000000000
     11482       105  POPC      H7X            46.2063871506        6.3218193104        8.9831773274  MEMB      105             0.0000000000
     11483       105  POPC      H7Y            45.1391797711        7.3972779545       10.0282569811  MEMB      105             0.0000000000
     11484       105  POPC      C38            44.5730974852        7.2818502097        7.9846875366  MEMB      105             0.0000000000
     11485       105  POPC      H8X            44.9683661950        8.3154119206        7.8855197074  MEMB      105             0.0000000000
     11486       105  POPC      H8Y            43.4732041614        7.1903474636        8.1118991715  MEMB      105             0.0000000000
     11487       105  POPC      C39            44.9635032393        6.5497964668        6.7169144964  MEMB      105             0.0000000000
     11488       105  POPC      H9X            44.4131820108        5.5864788023        6.7759650123  MEMB      105             0.0000000000
     11489       105  POPC      H9Y            46.0522489091        6.3913089048        6.5625272400  MEMB      105             0.0000000000
     11490       105  POPC      C310           44.4627122588        7.2968173932        5.4278022350  MEMB      105             0.0000000000
     11491       105  POPC      H10X           44.4865371889        6.6322258056        4.5378180261  MEMB      105             0.0000000000
     11492       105  POPC      H10Y           45.2011261097        8.1038490097        5.2334667166  MEMB      105             0.0000000000
     11493       105  POPC      C311           43.0640700235        7.8822539191        5.5693701263  MEMB      105             0.0000000000
     11494       105  POPC      H11X           43.0703181210        8.5493902786        6.4577453370  MEMB      105             0.0000000000
     11495       105  POPC      H11Y           42.2814493977        7.1032147108        5.6915323175  MEMB      105             0.0000000000
     11496       105  POPC      C312           42.5558513280        8.8098256303        4.4049799956  MEMB      105             0.0000000000
     11497       105  POPC      H12X           43.2572991754        9.5691824023        3.9979548011  MEMB      105             0.0000000000
     11498       105  POPC      H12Y           41.7720936134        9.4715391134        4.8318052135  MEMB      105             0.0000000000
     11499       105  POPC      C313           42.0792301132        7.9477805386        3.2061949163  MEMB      105             0.0000000000
     11500       105  POPC      H13X           41.3722344413        7.1571136156        3.5368361963  MEMB      105             0.0000000000
     11501       105  POPC      H13Y           42.8798933109        7.2462482731        2.8882141508  MEMB      105             0.0000000000
     11502       105  POPC      C314           41.5513865345        8.7220278709        2.0248164595  MEMB      105             0.0000000000
     11503       105  POPC      H14X           40.7740426150        9.4051974057        2.4289660275  MEMB      105             0.0000000000
     11504       105  POPC      H14Y           41.0317672634        8.1414827277        1.2328048731  MEMB      105             0.0000000000
     11505       105  POPC      C315           42.5137357752        9.5099744050        1.1199422005  MEMB      105             0.0000000000
     11506       105  POPC      H15X           42.6691910833       10.4657449201        1.6646044938  MEMB      105             0.0000000000
     11507       105  POPC      H15Y           41.9983904754        9.8337553024        0.1904754679  MEMB      105             0.0000000000
     11508       105  POPC      C316           43.7892885969        8.7759008947        0.7570442631  MEMB      105             0.0000000000
     11509       105  POPC      H16X           43.5978436435        7.6818365657        0.7833746064  MEMB      105             0.0000000000
     11510       105  POPC      H16Y           44.5532240043        9.0453184923        1.5173982059  MEMB      105             0.0000000000
     11511       105  POPC      H16Z           44.2605906869        9.0897969972       -0.1988142634  MEMB      105             0.0000000000
     11512       106  POPC      N             -38.0183989281      -13.4108693953       20.8293688681  MEMB      106             0.0000000000
     11513       106  POPC      C12           -38.5398905503      -12.2200332696       19.9699860541  MEMB      106             0.0000000000
     11514       106  POPC      H12A          -39.2750215065      -11.6952946268       20.5621277982  MEMB      106             0.0000000000
     11515       106  POPC      H12B          -39.0502355212      -12.6230377691       19.1077010382  MEMB      106             0.0000000000
     11516       106  POPC      C13           -36.8070389377      -14.0342667628       20.1734304251  MEMB      106             0.0000000000
     11517       106  POPC      H13A          -37.1103546320      -14.5076921843       19.2513306055  MEMB      106             0.0000000000
     11518       106  POPC      H13B          -36.0378609152      -13.2977438308       19.9937109839  MEMB      106             0.0000000000
     11519       106  POPC      H13C          -36.3918806171      -14.7596846080       20.8573986975  MEMB      106             0.0000000000
     11520       106  POPC      C14           -37.5442808731      -12.9430193288       22.1300853562  MEMB      106             0.0000000000
     11521       106  POPC      H14A          -38.3556636985      -12.7012041320       22.8005953078  MEMB      106             0.0000000000
     11522       106  POPC      H14B          -36.9609280240      -13.7376880862       22.5712214491  MEMB      106             0.0000000000
     11523       106  POPC      H14C          -37.0091392178      -12.0050085708       22.1174681323  MEMB      106             0.0000000000
     11524       106  POPC      C15           -39.0664856628      -14.4928290469       20.9627423868  MEMB      106             0.0000000000
     11525       106  POPC      H15A          -38.7610210901      -15.2731388963       21.6440704572  MEMB      106             0.0000000000
     11526       106  POPC      H15B          -39.2607299642      -14.8933810138       19.9787570042  MEMB      106             0.0000000000
     11527       106  POPC      H15C          -39.9832747338      -14.0157534683       21.2762653328  MEMB      106             0.0000000000
     11528       106  POPC      C11           -37.5132419342      -11.2049365311       19.5036781609  MEMB      106             0.0000000000
     11529       106  POPC      H11A          -36.8191084461      -10.8585927587       20.2990055433  MEMB      106             0.0000000000
     11530       106  POPC      H11B          -38.0749757655      -10.2958917676       19.1996817603  MEMB      106             0.0000000000
     11531       106  POPC      P             -37.2987864988      -12.0215403091       17.0913564290  MEMB      106             0.0000000000
     11532       106  POPC      O13           -38.1434325694      -10.9289843131       16.6037113395  MEMB      106             0.0000000000
     11533       106  POPC      O14           -38.0333358957      -13.3090190155       17.1659655529  MEMB      106             0.0000000000
     11534       106  POPC      O12           -36.6725386996      -11.6181289288       18.4541296026  MEMB      106             0.0000000000
     11535       106  POPC      O11           -35.9801122485      -12.1510740282       16.1155458246  MEMB      106             0.0000000000
     11536       106  POPC      C1            -35.3769253297      -13.4638210883       16.1288975612  MEMB      106             0.0000000000
     11537       106  POPC      HA            -36.1617947341      -14.2282722474       15.9447362461  MEMB      106             0.0000000000
     11538       106  POPC      HB            -34.8819479742      -13.5491610988       17.1198745824  MEMB      106             0.0000000000
     11539       106  POPC      C2            -34.2300470099      -13.5412746360       15.0682546422  MEMB      106             0.0000000000
     11540       106  POPC      HS            -33.3717517827      -12.8819128229       15.3190383192  MEMB      106             0.0000000000
     11541       106  POPC      O21           -34.7556174428      -13.1569900726       13.7929867210  MEMB      106             0.0000000000
     11542       106  POPC      C21           -33.9105478886      -12.8882709822       12.7170708204  MEMB      106             0.0000000000
     11543       106  POPC      O22           -32.7346088491      -13.0254682474       12.6757053033  MEMB      106             0.0000000000
     11544       106  POPC      C22           -34.6831019460      -12.2470802785       11.6234450807  MEMB      106             0.0000000000
     11545       106  POPC      H2R           -35.0987531107      -11.2787517048       11.9754326352  MEMB      106             0.0000000000
     11546       106  POPC      H2S           -35.5900759641      -12.8785965044       11.5098385432  MEMB      106             0.0000000000
     11547       106  POPC      C3            -33.6882253569      -14.9474099230       15.0137220156  MEMB      106             0.0000000000
     11548       106  POPC      HX            -33.3884588186      -15.2902048972       16.0271088791  MEMB      106             0.0000000000
     11549       106  POPC      HY            -32.7123566273      -15.0407512441       14.4909518669  MEMB      106             0.0000000000
     11550       106  POPC      O31           -34.7049205563      -15.8322611906       14.5293003788  MEMB      106             0.0000000000
     11551       106  POPC      C31           -34.4963820442      -16.1898840505       13.2166636988  MEMB      106             0.0000000000
     11552       106  POPC      O32           -33.5911681448      -15.7421307340       12.5677678089  MEMB      106             0.0000000000
     11553       106  POPC      C32           -35.4505633038      -17.2266995052       12.8603719032  MEMB      106             0.0000000000
     11554       106  POPC      H2X           -35.9256301022      -17.5448923512       13.8129396104  MEMB      106             0.0000000000
     11555       106  POPC      H2Y           -34.9785477823      -18.1625882412       12.4920852030  MEMB      106             0.0000000000
     11556       106  POPC      C23           -33.8474872404      -12.2197488104       10.2777683792  MEMB      106             0.0000000000
     11557       106  POPC      H3R           -33.3964317026      -13.2003128224       10.0143975164  MEMB      106             0.0000000000
     11558       106  POPC      H3S           -33.0438165524      -11.4616603443       10.3949690501  MEMB      106             0.0000000000
     11559       106  POPC      C24           -34.6324069787      -11.5981031723        9.0933601581  MEMB      106             0.0000000000
     11560       106  POPC      H4R           -34.5610721712      -10.4926393319        9.1781063811  MEMB      106             0.0000000000
     11561       106  POPC      H4S           -35.7296433946      -11.7496795383        9.1794862863  MEMB      106             0.0000000000
     11562       106  POPC      C25           -34.0077424544      -11.9508112805        7.6856268301  MEMB      106             0.0000000000
     11563       106  POPC      H5R           -33.7953776999      -13.0413059400        7.6790362202  MEMB      106             0.0000000000
     11564       106  POPC      H5S           -33.0590360108      -11.3968637978        7.5200384419  MEMB      106             0.0000000000
     11565       106  POPC      C26           -34.9389188865      -11.4681671990        6.5775712808  MEMB      106             0.0000000000
     11566       106  POPC      H6R           -34.7437562754      -10.3780726808        6.4885387883  MEMB      106             0.0000000000
     11567       106  POPC      H6S           -35.9947209249      -11.5477831348        6.9141183098  MEMB      106             0.0000000000
     11568       106  POPC      C27           -34.7495340293      -12.2175738199        5.1428859893  MEMB      106             0.0000000000
     11569       106  POPC      H7R           -33.8782570449      -11.7883253830        4.6034948651  MEMB      106             0.0000000000
     11570       106  POPC      H7S           -35.5907000669      -11.8388668798        4.5237397439  MEMB      106             0.0000000000
     11571       106  POPC      C28           -34.6146109740      -13.7818725299        5.0586569336  MEMB      106             0.0000000000
     11572       106  POPC      H8R           -33.6663257421      -14.0372015576        5.5781601387  MEMB      106             0.0000000000
     11573       106  POPC      H8S           -34.5293157558      -14.1262733185        4.0058352611  MEMB      106             0.0000000000
     11574       106  POPC      C29           -35.7595834753      -14.4343056161        5.8271061963  MEMB      106             0.0000000000
     11575       106  POPC      H91           -35.9845676952      -14.0445903857        6.8308519202  MEMB      106             0.0000000000
     11576       106  POPC      C210          -36.5944855253      -15.3455955965        5.2583933383  MEMB      106             0.0000000000
     11577       106  POPC      H101          -37.3391182429      -15.8888935832        5.8586847715  MEMB      106             0.0000000000
     11578       106  POPC      C211          -36.5627339111      -15.8674520965        3.7902585505  MEMB      106             0.0000000000
     11579       106  POPC      H11R          -36.0075181074      -15.2535791050        3.0491672382  MEMB      106             0.0000000000
     11580       106  POPC      H11S          -37.5999026247      -15.8431034111        3.3927547639  MEMB      106             0.0000000000
     11581       106  POPC      C212          -35.7168388195      -17.1696156648        3.6623722254  MEMB      106             0.0000000000
     11582       106  POPC      H12R          -35.8699828118      -17.4201695145        2.5908820363  MEMB      106             0.0000000000
     11583       106  POPC      H12S          -36.0640058645      -17.9685201971        4.3519716634  MEMB      106             0.0000000000
     11584       106  POPC      C213          -34.2279906784      -17.0362951485        3.9767464661  MEMB      106             0.0000000000
     11585       106  POPC      H13R          -33.9073834924      -18.0249709004        4.3692413306  MEMB      106             0.0000000000
     11586       106  POPC      H13S          -34.0614845367      -16.3852996875        4.8615076442  MEMB      106             0.0000000000
     11587       106  POPC      C214          -33.4274515559      -16.6303133823        2.7818331964  MEMB      106             0.0000000000
     11588       106  POPC      H14R          -34.1144729091      -16.0773833524        2.1061177002  MEMB      106             0.0000000000
     11589       106  POPC      H14S          -33.0544194957      -17.4764085242        2.1659674320  MEMB      106             0.0000000000
     11590       106  POPC      C215          -32.2532905587      -15.6407413823        3.0058270939  MEMB      106             0.0000000000
     11591       106  POPC      H15R          -32.6843231121      -14.6171870226        3.0352914615  MEMB      106             0.0000000000
     11592       106  POPC      H15S          -31.6154386965      -15.6380672425        2.0961780985  MEMB      106             0.0000000000
     11593       106  POPC      C216          -31.2409681093      -15.9906267053        4.1357784449  MEMB      106             0.0000000000
     11594       106  POPC      H16R          -30.9843136979      -17.0643768538        4.0112387469  MEMB      106             0.0000000000
     11595       106  POPC      H16S          -31.7066231527      -15.8858340951        5.1390254471  MEMB      106             0.0000000000
     11596       106  POPC      C217          -29.9831854668      -15.0859188825        4.0708978216  MEMB      106             0.0000000000
     11597       106  POPC      H17R          -29.4221306835      -15.4009926943        3.1652122539  MEMB      106             0.0000000000
     11598       106  POPC      H17S          -29.4192899679      -15.4019156791        4.9744961877  MEMB      106             0.0000000000
     11599       106  POPC      C218          -30.2051804899      -13.5810227048        3.9021938263  MEMB      106             0.0000000000
     11600       106  POPC      H18R          -29.2746679208      -12.9832406063        4.0076628489  MEMB      106             0.0000000000
     11601       106  POPC      H18S          -30.8839992729      -13.3202931734        4.7421615700  MEMB      106             0.0000000000
     11602       106  POPC      H18T          -30.6294301985      -13.3233441749        2.9082443102  MEMB      106             0.0000000000
     11603       106  POPC      C33           -36.4436745412      -16.5249484586       11.8930874183  MEMB      106             0.0000000000
     11604       106  POPC      H3X           -36.8459332856      -15.5451479941       12.2284977959  MEMB      106             0.0000000000
     11605       106  POPC      H3Y           -37.3266836341      -17.1983697783       11.8596250599  MEMB      106             0.0000000000
     11606       106  POPC      C34           -35.9331467832      -16.2711742907       10.4620432985  MEMB      106             0.0000000000
     11607       106  POPC      H4X           -35.6633182560      -17.2783672396       10.0785377060  MEMB      106             0.0000000000
     11608       106  POPC      H4Y           -34.9763718462      -15.7178453007       10.5748684535  MEMB      106             0.0000000000
     11609       106  POPC      C35           -36.9590509516      -15.5472459705        9.5811155604  MEMB      106             0.0000000000
     11610       106  POPC      H5X           -36.5565579820      -15.4436486013        8.5507817507  MEMB      106             0.0000000000
     11611       106  POPC      H5Y           -37.2081481115      -14.5556096789       10.0157753439  MEMB      106             0.0000000000
     11612       106  POPC      C36           -38.3181283227      -16.2623674427        9.3423369586  MEMB      106             0.0000000000
     11613       106  POPC      H6X           -38.9020210789      -16.0230690534       10.2567366426  MEMB      106             0.0000000000
     11614       106  POPC      H6Y           -38.1235456268      -17.3531841139        9.4234378476  MEMB      106             0.0000000000
     11615       106  POPC      C37           -39.2440709399      -15.9191877596        8.1065438730  MEMB      106             0.0000000000
     11616       106  POPC      H7X           -40.2887899358      -16.2300747810        8.3215596280  MEMB      106             0.0000000000
     11617       106  POPC      H7Y           -38.8583260170      -16.4554953629        7.2132938169  MEMB      106             0.0000000000
     11618       106  POPC      C38           -39.2907628341      -14.4166481258        7.9094357631  MEMB      106             0.0000000000
     11619       106  POPC      H8X           -38.2701420843      -14.0407005066        7.6829012372  MEMB      106             0.0000000000
     11620       106  POPC      H8Y           -39.6774052150      -13.9446254766        8.8378884162  MEMB      106             0.0000000000
     11621       106  POPC      C39           -40.2556639852      -14.0497690850        6.7291907451  MEMB      106             0.0000000000
     11622       106  POPC      H9X           -41.1427834711      -14.7038160845        6.8690587247  MEMB      106             0.0000000000
     11623       106  POPC      H9Y           -39.7501498752      -14.2797908094        5.7669712510  MEMB      106             0.0000000000
     11624       106  POPC      C310          -40.6461555016      -12.6003931916        6.8619610861  MEMB      106             0.0000000000
     11625       106  POPC      H10X          -41.0692242771      -12.3332211781        7.8539050209  MEMB      106             0.0000000000
     11626       106  POPC      H10Y          -41.2923279719      -12.3870460076        5.9837440780  MEMB      106             0.0000000000
     11627       106  POPC      C311          -39.4029258845      -11.5734617463        6.8436661496  MEMB      106             0.0000000000
     11628       106  POPC      H11X          -38.9209802615      -11.5266898299        7.8435968335  MEMB      106             0.0000000000
     11629       106  POPC      H11Y          -39.9453357956      -10.6494329823        6.5499254877  MEMB      106             0.0000000000
     11630       106  POPC      C312          -38.4060799654      -11.6576219712        5.6589169690  MEMB      106             0.0000000000
     11631       106  POPC      H12X          -37.8808817517      -12.6049551987        5.9059952917  MEMB      106             0.0000000000
     11632       106  POPC      H12Y          -37.6996601386      -10.8108602971        5.7941456792  MEMB      106             0.0000000000
     11633       106  POPC      C313          -39.0816022923      -11.7135162329        4.3096124667  MEMB      106             0.0000000000
     11634       106  POPC      H13X          -39.1882446709      -10.6331240336        4.0736009937  MEMB      106             0.0000000000
     11635       106  POPC      H13Y          -39.9832073360      -12.3557985691        4.4039666171  MEMB      106             0.0000000000
     11636       106  POPC      C314          -38.2539376370      -12.2880091675        3.0906085126  MEMB      106             0.0000000000
     11637       106  POPC      H14X          -38.3589208421      -13.3607665764        3.3598504019  MEMB      106             0.0000000000
     11638       106  POPC      H14Y          -37.2177162744      -11.8930348418        3.1581463701  MEMB      106             0.0000000000
     11639       106  POPC      C315          -38.7664269015      -11.9885353840        1.7156045667  MEMB      106             0.0000000000
     11640       106  POPC      H15X          -38.0652461697      -12.3182794618        0.9194029663  MEMB      106             0.0000000000
     11641       106  POPC      H15Y          -38.8846167437      -10.8872857974        1.6284187890  MEMB      106             0.0000000000
     11642       106  POPC      C316          -40.2360734233      -12.5135002439        1.4417904871  MEMB      106             0.0000000000
     11643       106  POPC      H16X          -40.2448165534      -13.6200877116        1.5403242315  MEMB      106             0.0000000000
     11644       106  POPC      H16Y          -40.5389627403      -12.1931328307        0.4220136755  MEMB      106             0.0000000000
     11645       106  POPC      H16Z          -40.9452653929      -11.9564694258        2.0907008417  MEMB      106             0.0000000000
     11646       107  POPE      N             -33.2907212166       46.5196071640       19.6867247170  MEMB      107             0.0000000000
     11647       107  POPE      HN1           -33.7193398000       46.5239482651       20.6342833017  MEMB      107             0.0000000000
     11648       107  POPE      HN2           -34.0351194591       46.5318085280       18.9605550395  MEMB      107             0.0000000000
     11649       107  POPE      HN3           -32.6549880419       45.7110163375       19.5330229142  MEMB      107             0.0000000000
     11650       107  POPE      C12           -32.5868634370       47.8162513486       19.7365114962  MEMB      107             0.0000000000
     11651       107  POPE      H12A          -31.5227544382       47.5834571359       19.9551433576  MEMB      107             0.0000000000
     11652       107  POPE      H12B          -32.9855981032       48.4802819073       20.5330007746  MEMB      107             0.0000000000
     11653       107  POPE      C11           -32.7763084794       48.7424279591       18.5241316716  MEMB      107             0.0000000000
     11654       107  POPE      H11A          -33.8081644950       48.5338943397       18.1690149593  MEMB      107             0.0000000000
     11655       107  POPE      H11B          -32.1770184175       48.3248608107       17.6869876183  MEMB      107             0.0000000000
     11656       107  POPE      P             -30.8576960710       50.3775556524       18.9047683940  MEMB      107             0.0000000000
     11657       107  POPE      O13           -30.2443160660       49.6915258413       20.0330955573  MEMB      107             0.0000000000
     11658       107  POPE      O14           -30.7553630658       51.8288466482       18.7776647107  MEMB      107             0.0000000000
     11659       107  POPE      O11           -30.2583847660       49.7818375520       17.5399277603  MEMB      107             0.0000000000
     11660       107  POPE      O12           -32.4275996723       50.0505062305       18.7971756582  MEMB      107             0.0000000000
     11661       107  POPE      C1            -30.9819076740       50.3407674736       16.3875218111  MEMB      107             0.0000000000
     11662       107  POPE      HA            -31.2763214049       51.4116584495       16.3586415596  MEMB      107             0.0000000000
     11663       107  POPE      HB            -31.9157085725       49.7452952032       16.2994893086  MEMB      107             0.0000000000
     11664       107  POPE      C2            -30.1351540502       50.0803239067       15.1230341431  MEMB      107             0.0000000000
     11665       107  POPE      HS            -30.5661092232       50.6679594312       14.2844143224  MEMB      107             0.0000000000
     11666       107  POPE      O21           -30.0749741905       48.6425803478       14.8476028158  MEMB      107             0.0000000000
     11667       107  POPE      C21           -31.1613774218       48.1478229778       14.1763111536  MEMB      107             0.0000000000
     11668       107  POPE      O22           -32.1400507737       48.8517312510       13.9478921810  MEMB      107             0.0000000000
     11669       107  POPE      C22           -31.0296562587       46.6199466236       13.9233668631  MEMB      107             0.0000000000
     11670       107  POPE      H2R           -31.5665806095       46.0900787938       14.7390097036  MEMB      107             0.0000000000
     11671       107  POPE      H2S           -29.9504913765       46.3619475324       13.9795887334  MEMB      107             0.0000000000
     11672       107  POPE      C3            -28.7247179629       50.6689239213       15.3113151397  MEMB      107             0.0000000000
     11673       107  POPE      HX            -28.2425947614       49.8587241690       15.8990690269  MEMB      107             0.0000000000
     11674       107  POPE      HY            -28.6510783562       51.6397128528       15.8465409246  MEMB      107             0.0000000000
     11675       107  POPE      O31           -28.1667146679       50.7092577331       13.9726795071  MEMB      107             0.0000000000
     11676       107  POPE      C31           -26.8379180114       50.6589995683       13.9329507269  MEMB      107             0.0000000000
     11677       107  POPE      O32           -26.0370234483       50.2871964510       14.8088192970  MEMB      107             0.0000000000
     11678       107  POPE      C32           -26.5019399900       51.0805522859       12.4965690029  MEMB      107             0.0000000000
     11679       107  POPE      H2X           -25.5122131402       50.6086289452       12.3175433521  MEMB      107             0.0000000000
     11680       107  POPE      H2Y           -26.2911566747       52.1709971052       12.4678923459  MEMB      107             0.0000000000
     11681       107  POPE      C23           -31.5838998322       46.2888907805       12.5603497431  MEMB      107             0.0000000000
     11682       107  POPE      H3R           -32.6004511632       46.6774924123       12.3368926082  MEMB      107             0.0000000000
     11683       107  POPE      H3S           -31.6379581211       45.1835338396       12.4624482974  MEMB      107             0.0000000000
     11684       107  POPE      C24           -30.6066694204       46.8146954502       11.4759400394  MEMB      107             0.0000000000
     11685       107  POPE      H4R           -29.6258457691       46.3279197906       11.6639703912  MEMB      107             0.0000000000
     11686       107  POPE      H4S           -30.5270513452       47.9121872737       11.6292160776  MEMB      107             0.0000000000
     11687       107  POPE      C25           -30.9575340235       46.5823426550        9.9976769634  MEMB      107             0.0000000000
     11688       107  POPE      H5R           -31.1051748041       45.4820746257        9.9537068229  MEMB      107             0.0000000000
     11689       107  POPE      H5S           -30.0199524329       46.9092674577        9.4992971436  MEMB      107             0.0000000000
     11690       107  POPE      C26           -32.2058972688       47.2793316268        9.4266637543  MEMB      107             0.0000000000
     11691       107  POPE      H6R           -33.0006479743       46.8778006994       10.0910932047  MEMB      107             0.0000000000
     11692       107  POPE      H6S           -32.5059990776       46.8904627504        8.4301495774  MEMB      107             0.0000000000
     11693       107  POPE      C27           -32.1836464554       48.8484157658        9.2700928992  MEMB      107             0.0000000000
     11694       107  POPE      H7R           -31.4443506018       49.2825120958        9.9767205052  MEMB      107             0.0000000000
     11695       107  POPE      H7S           -33.0889381545       49.3396338859        9.6865931585  MEMB      107             0.0000000000
     11696       107  POPE      C28           -31.9343750838       49.4610546809        7.9044992103  MEMB      107             0.0000000000
     11697       107  POPE      H8R           -31.0770459671       48.9305041581        7.4377819467  MEMB      107             0.0000000000
     11698       107  POPE      H8S           -31.6787467095       50.5379357726        8.0009462178  MEMB      107             0.0000000000
     11699       107  POPE      C29           -33.1352231288       49.4001473447        7.0896356465  MEMB      107             0.0000000000
     11700       107  POPE      H91           -33.9702103430       49.7617260983        7.7077432520  MEMB      107             0.0000000000
     11701       107  POPE      C210          -33.2922636141       49.0266929333        5.8183052898  MEMB      107             0.0000000000
     11702       107  POPE      H101          -34.2676306823       48.9112934458        5.3229849222  MEMB      107             0.0000000000
     11703       107  POPE      C211          -32.0848651013       48.5226836998        5.0485873376  MEMB      107             0.0000000000
     11704       107  POPE      H11R          -32.5111841229       47.9114076495        4.2246243302  MEMB      107             0.0000000000
     11705       107  POPE      H11S          -31.5814560480       47.8172859509        5.7437952629  MEMB      107             0.0000000000
     11706       107  POPE      C212          -31.0507099187       49.5143906776        4.4188801393  MEMB      107             0.0000000000
     11707       107  POPE      H12R          -30.4461408013       49.9965131315        5.2166109169  MEMB      107             0.0000000000
     11708       107  POPE      H12S          -31.4940498777       50.3358426210        3.8163956203  MEMB      107             0.0000000000
     11709       107  POPE      C213          -30.2730748374       48.6384365066        3.4721254081  MEMB      107             0.0000000000
     11710       107  POPE      H13R          -30.8780202346       48.2178421059        2.6405829258  MEMB      107             0.0000000000
     11711       107  POPE      H13S          -29.6068374911       47.9757563679        4.0648343570  MEMB      107             0.0000000000
     11712       107  POPE      C214          -29.1528193726       49.5481930361        2.8375856088  MEMB      107             0.0000000000
     11713       107  POPE      H14R          -28.4987793521       49.9500160876        3.6407612110  MEMB      107             0.0000000000
     11714       107  POPE      H14S          -29.6585504493       50.4634048527        2.4621602675  MEMB      107             0.0000000000
     11715       107  POPE      C215          -28.3386461057       48.8232114609        1.7299019172  MEMB      107             0.0000000000
     11716       107  POPE      H15R          -27.9423706308       47.9036026914        2.2111572110  MEMB      107             0.0000000000
     11717       107  POPE      H15S          -27.5833299340       49.4723341369        1.2375023255  MEMB      107             0.0000000000
     11718       107  POPE      C216          -29.2285513459       48.4642003098        0.5050370408  MEMB      107             0.0000000000
     11719       107  POPE      H16R          -30.1667958706       47.9201495496        0.7459255149  MEMB      107             0.0000000000
     11720       107  POPE      H16S          -28.6424253302       47.7040286946       -0.0543519099  MEMB      107             0.0000000000
     11721       107  POPE      C217          -29.3633730693       49.5773483978       -0.4461479619  MEMB      107             0.0000000000
     11722       107  POPE      H17R          -28.3234504320       49.9134214058       -0.6459890007  MEMB      107             0.0000000000
     11723       107  POPE      H17S          -30.0139448763       50.3608977631       -0.0021550749  MEMB      107             0.0000000000
     11724       107  POPE      C218          -30.0038498243       49.2660286788       -1.7963162004  MEMB      107             0.0000000000
     11725       107  POPE      H18R          -29.5322936118       48.4323319028       -2.3592620009  MEMB      107             0.0000000000
     11726       107  POPE      H18S          -30.0307031682       50.1581486387       -2.4579220333  MEMB      107             0.0000000000
     11727       107  POPE      H18T          -31.0874765079       49.0669167002       -1.6533872053  MEMB      107             0.0000000000
     11728       107  POPE      C33           -27.4797723016       50.6276497643       11.4333014154  MEMB      107             0.0000000000
     11729       107  POPE      H3X           -28.3868216644       51.2636962557       11.3494728908  MEMB      107             0.0000000000
     11730       107  POPE      H3Y           -27.8076868010       49.5810121287       11.6103403036  MEMB      107             0.0000000000
     11731       107  POPE      C34           -27.0115127790       50.5653602170        9.9629608531  MEMB      107             0.0000000000
     11732       107  POPE      H4X           -26.6337790336       49.5384803354        9.7702028687  MEMB      107             0.0000000000
     11733       107  POPE      H4Y           -26.1997445849       51.3031579786        9.7868709987  MEMB      107             0.0000000000
     11734       107  POPE      C35           -28.1748235015       50.7451761382        9.0554399086  MEMB      107             0.0000000000
     11735       107  POPE      H5X           -28.4549291903       51.8144197024        8.9432788388  MEMB      107             0.0000000000
     11736       107  POPE      H5Y           -29.0814843966       50.2300786239        9.4387954283  MEMB      107             0.0000000000
     11737       107  POPE      C36           -28.0699314781       50.0391781117        7.6152787102  MEMB      107             0.0000000000
     11738       107  POPE      H6X           -27.2855096606       50.5937485645        7.0571965788  MEMB      107             0.0000000000
     11739       107  POPE      H6Y           -29.0534929834       50.1981525229        7.1236949592  MEMB      107             0.0000000000
     11740       107  POPE      C37           -27.8219578220       48.4963632293        7.5466212577  MEMB      107             0.0000000000
     11741       107  POPE      H7X           -28.2930301714       47.9053117530        8.3609126938  MEMB      107             0.0000000000
     11742       107  POPE      H7Y           -26.7643075009       48.2435308266        7.7741570871  MEMB      107             0.0000000000
     11743       107  POPE      C38           -28.0465189510       47.8909717252        6.1475053759  MEMB      107             0.0000000000
     11744       107  POPE      H8X           -27.5182814177       48.5430152333        5.4194083729  MEMB      107             0.0000000000
     11745       107  POPE      H8Y           -29.1381403190       48.0665338211        6.0385938202  MEMB      107             0.0000000000
     11746       107  POPE      C39           -27.7429073895       46.3689951766        5.9991326858  MEMB      107             0.0000000000
     11747       107  POPE      H9X           -28.3197709542       45.7672983374        6.7336467713  MEMB      107             0.0000000000
     11748       107  POPE      H9Y           -26.6406472418       46.2458640936        6.0638039328  MEMB      107             0.0000000000
     11749       107  POPE      C310          -28.3636818683       45.8177007262        4.7106598587  MEMB      107             0.0000000000
     11750       107  POPE      H10X          -28.0176898275       46.4387123259        3.8568715834  MEMB      107             0.0000000000
     11751       107  POPE      H10Y          -29.4649307251       45.8061388510        4.8570801374  MEMB      107             0.0000000000
     11752       107  POPE      C311          -27.9564472051       44.3499190154        4.3219999153  MEMB      107             0.0000000000
     11753       107  POPE      H11X          -28.1023076025       43.7567092906        5.2499802416  MEMB      107             0.0000000000
     11754       107  POPE      H11Y          -26.9113419812       44.2364447220        3.9625560164  MEMB      107             0.0000000000
     11755       107  POPE      C312          -28.8506085470       43.7659381490        3.2571646696  MEMB      107             0.0000000000
     11756       107  POPE      H12X          -29.9409149373       43.7610271785        3.4705400615  MEMB      107             0.0000000000
     11757       107  POPE      H12Y          -28.7112624444       42.6686999365        3.3619143693  MEMB      107             0.0000000000
     11758       107  POPE      C313          -28.6186065809       44.3534687385        1.8108630139  MEMB      107             0.0000000000
     11759       107  POPE      H13X          -27.6160711819       44.8191569664        1.6996041034  MEMB      107             0.0000000000
     11760       107  POPE      H13Y          -29.4107842525       45.1172135389        1.6576658306  MEMB      107             0.0000000000
     11761       107  POPE      C314          -28.7731101132       43.2567757077        0.8128410597  MEMB      107             0.0000000000
     11762       107  POPE      H14X          -29.8069528054       42.8764779964        0.9572877834  MEMB      107             0.0000000000
     11763       107  POPE      H14Y          -28.0816028579       42.4060141747        0.9926841787  MEMB      107             0.0000000000
     11764       107  POPE      C315          -28.5275254729       43.6900064339       -0.6449925585  MEMB      107             0.0000000000
     11765       107  POPE      H15X          -28.7348456798       42.7994276530       -1.2760309567  MEMB      107             0.0000000000
     11766       107  POPE      H15Y          -27.4371867303       43.8372269334       -0.7992912769  MEMB      107             0.0000000000
     11767       107  POPE      C316          -29.2908447313       44.9019186511       -1.2715072427  MEMB      107             0.0000000000
     11768       107  POPE      H16X          -28.8492470710       45.8594830543       -0.9216738532  MEMB      107             0.0000000000
     11769       107  POPE      H16Y          -30.3380758865       44.7575457135       -0.9297688339  MEMB      107             0.0000000000
     11770       107  POPE      H16Z          -29.3157932215       44.7353061365       -2.3696587823  MEMB      107             0.0000000000
     11771       108  POPC      N             -44.0035645536       -0.0447204405       20.9649267259  MEMB      108             0.0000000000
     11772       108  POPC      C12           -44.8446084365       -1.0451889032       20.1850475590  MEMB      108             0.0000000000
     11773       108  POPC      H12A          -45.8394649677       -0.6663863525       20.3671711918  MEMB      108             0.0000000000
     11774       108  POPC      H12B          -44.6919107595       -1.9941880704       20.6774741041  MEMB      108             0.0000000000
     11775       108  POPC      C13           -42.5534922583       -0.5798746669       20.8501550582  MEMB      108             0.0000000000
     11776       108  POPC      H13A          -42.4920559662       -1.4462531457       21.4920380606  MEMB      108             0.0000000000
     11777       108  POPC      H13B          -42.3822903055       -0.8822894443       19.8275921029  MEMB      108             0.0000000000
     11778       108  POPC      H13C          -41.8745633195        0.1591747214       21.2492307622  MEMB      108             0.0000000000
     11779       108  POPC      C14           -44.1324028763        1.3885157593       20.4904257346  MEMB      108             0.0000000000
     11780       108  POPC      H14A          -45.1524423093        1.7308497297       20.5838437797  MEMB      108             0.0000000000
     11781       108  POPC      H14B          -43.4522066688        1.9868602422       21.0784030583  MEMB      108             0.0000000000
     11782       108  POPC      H14C          -43.8174660961        1.3354994850       19.4587261436  MEMB      108             0.0000000000
     11783       108  POPC      C15           -44.5373941068       -0.1033726952       22.3259998462  MEMB      108             0.0000000000
     11784       108  POPC      H15A          -43.9261783100        0.5496387095       22.9313026164  MEMB      108             0.0000000000
     11785       108  POPC      H15B          -44.5125397209       -1.1260089238       22.6724061141  MEMB      108             0.0000000000
     11786       108  POPC      H15C          -45.5591113925        0.2368801491       22.4079863101  MEMB      108             0.0000000000
     11787       108  POPC      C11           -44.6536444914       -1.1666170876       18.6486617076  MEMB      108             0.0000000000
     11788       108  POPC      H11A          -45.4278096752       -1.8873549239       18.3087701344  MEMB      108             0.0000000000
     11789       108  POPC      H11B          -43.6082642542       -1.5393055811       18.5976303767  MEMB      108             0.0000000000
     11790       108  POPC      P             -45.9170811471        0.3800563169       17.1072058116  MEMB      108             0.0000000000
     11791       108  POPC      O13           -47.1459250821        0.3450025919       17.9791869884  MEMB      108             0.0000000000
     11792       108  POPC      O14           -45.9035711043       -0.4837897306       15.8615065662  MEMB      108             0.0000000000
     11793       108  POPC      O12           -44.6319092628        0.0654784641       17.9473026096  MEMB      108             0.0000000000
     11794       108  POPC      O11           -45.7291889504        1.8956444718       16.6395813892  MEMB      108             0.0000000000
     11795       108  POPC      C1            -44.4800607801        2.6213762599       16.8489908101  MEMB      108             0.0000000000
     11796       108  POPC      HA            -43.5625274520        1.9954409592       16.8746552204  MEMB      108             0.0000000000
     11797       108  POPC      HB            -44.4799796458        3.0346119256       17.8802799149  MEMB      108             0.0000000000
     11798       108  POPC      C2            -44.2185136969        3.7623582728       15.8521732975  MEMB      108             0.0000000000
     11799       108  POPC      HS            -44.9649935378        4.5025829486       16.2115567455  MEMB      108             0.0000000000
     11800       108  POPC      O21           -44.6783700485        3.3744521296       14.5236318765  MEMB      108             0.0000000000
     11801       108  POPC      C21           -45.0094979575        4.3676944431       13.7387523651  MEMB      108             0.0000000000
     11802       108  POPC      O22           -45.1008036500        5.5714792448       14.0351308761  MEMB      108             0.0000000000
     11803       108  POPC      C22           -45.3301479978        3.8811367467       12.2921952685  MEMB      108             0.0000000000
     11804       108  POPC      H2R           -46.4191819491        3.6779811972       12.2082079004  MEMB      108             0.0000000000
     11805       108  POPC      H2S           -44.8920747378        2.8944789474       12.0296708989  MEMB      108             0.0000000000
     11806       108  POPC      C3            -42.6591440967        4.1640251779       15.7958883203  MEMB      108             0.0000000000
     11807       108  POPC      HX            -42.5915909876        4.4744092667       16.8605099508  MEMB      108             0.0000000000
     11808       108  POPC      HY            -42.4662003456        5.1403316799       15.3020063609  MEMB      108             0.0000000000
     11809       108  POPC      O31           -41.7652836611        3.1345291045       15.4597292957  MEMB      108             0.0000000000
     11810       108  POPC      C31           -41.5759582266        3.0243053120       14.1240836737  MEMB      108             0.0000000000
     11811       108  POPC      O32           -42.2409523892        3.5736462089       13.2967996881  MEMB      108             0.0000000000
     11812       108  POPC      C32           -40.3294706425        2.1919034961       13.8103788950  MEMB      108             0.0000000000
     11813       108  POPC      H2X           -40.1679779761        1.3817822942       14.5533091049  MEMB      108             0.0000000000
     11814       108  POPC      H2Y           -39.3606284394        2.7340230555       13.7682781857  MEMB      108             0.0000000000
     11815       108  POPC      C23           -45.0019935434        4.9430877802       11.3408203937  MEMB      108             0.0000000000
     11816       108  POPC      H3R           -43.9947111479        5.3169144723       11.6235866688  MEMB      108             0.0000000000
     11817       108  POPC      H3S           -45.7446049431        5.7637717711       11.4373943240  MEMB      108             0.0000000000
     11818       108  POPC      C24           -44.9621577221        4.3407933786        9.8955587949  MEMB      108             0.0000000000
     11819       108  POPC      H4R           -46.0444977480        4.2722197287        9.6543981280  MEMB      108             0.0000000000
     11820       108  POPC      H4S           -44.7327343624        3.2543693302        9.9325538126  MEMB      108             0.0000000000
     11821       108  POPC      C25           -44.2463044265        5.1370247629        8.7414344740  MEMB      108             0.0000000000
     11822       108  POPC      H5R           -44.6852239875        6.1562450848        8.6879488062  MEMB      108             0.0000000000
     11823       108  POPC      H5S           -44.4330081659        4.4907319635        7.8572573502  MEMB      108             0.0000000000
     11824       108  POPC      C26           -42.7431208539        5.2409228585        8.9838887366  MEMB      108             0.0000000000
     11825       108  POPC      H6R           -42.6387666091        5.6479182827       10.0123763094  MEMB      108             0.0000000000
     11826       108  POPC      H6S           -42.2905291840        6.0669574713        8.3946956833  MEMB      108             0.0000000000
     11827       108  POPC      C27           -41.8430243349        4.0455909834        8.7576863789  MEMB      108             0.0000000000
     11828       108  POPC      H7R           -42.1365890896        3.2040975735        9.4210334615  MEMB      108             0.0000000000
     11829       108  POPC      H7S           -40.8313460308        4.2705057635        9.1579883048  MEMB      108             0.0000000000
     11830       108  POPC      C28           -41.7902252231        3.5407559213        7.3226481597  MEMB      108             0.0000000000
     11831       108  POPC      H8R           -42.7202876509        2.9387903595        7.2393248976  MEMB      108             0.0000000000
     11832       108  POPC      H8S           -40.9852852587        2.7917208360        7.1634655531  MEMB      108             0.0000000000
     11833       108  POPC      C29           -41.7234975511        4.5948872302        6.2712667430  MEMB      108             0.0000000000
     11834       108  POPC      H91           -42.4740330485        5.3990608323        6.2723559121  MEMB      108             0.0000000000
     11835       108  POPC      C210          -40.7920405180        4.6908801756        5.3056273460  MEMB      108             0.0000000000
     11836       108  POPC      H101          -40.9391956361        5.4347975793        4.5088006975  MEMB      108             0.0000000000
     11837       108  POPC      C211          -39.6202733896        3.8044912531        5.1082050111  MEMB      108             0.0000000000
     11838       108  POPC      H11R          -39.2483881192        3.5006613675        6.1100583705  MEMB      108             0.0000000000
     11839       108  POPC      H11S          -38.8412686559        4.4048412905        4.5914329340  MEMB      108             0.0000000000
     11840       108  POPC      C212          -40.0372892943        2.6322299612        4.1270789646  MEMB      108             0.0000000000
     11841       108  POPC      H12R          -40.9299858201        2.0850617956        4.4985914015  MEMB      108             0.0000000000
     11842       108  POPC      H12S          -39.2752021078        1.8260173156        4.1867890329  MEMB      108             0.0000000000
     11843       108  POPC      C213          -40.3016464187        3.1915201758        2.6801829433  MEMB      108             0.0000000000
     11844       108  POPC      H13R          -39.6615535434        4.0925144008        2.5669901925  MEMB      108             0.0000000000
     11845       108  POPC      H13S          -41.3755477025        3.4212593171        2.5120259992  MEMB      108             0.0000000000
     11846       108  POPC      C214          -39.7857253344        2.3188631475        1.4963416198  MEMB      108             0.0000000000
     11847       108  POPC      H14R          -38.7278068199        2.0365979713        1.6846384276  MEMB      108             0.0000000000
     11848       108  POPC      H14S          -40.0742982688        2.9840618496        0.6545834802  MEMB      108             0.0000000000
     11849       108  POPC      C215          -40.6994090663        1.0556954361        1.3136095954  MEMB      108             0.0000000000
     11850       108  POPC      H15R          -41.6570033285        1.4738214386        0.9361107031  MEMB      108             0.0000000000
     11851       108  POPC      H15S          -40.7183647493        0.5978971704        2.3257271624  MEMB      108             0.0000000000
     11852       108  POPC      C216          -40.1233832075       -0.0077281338        0.4032873634  MEMB      108             0.0000000000
     11853       108  POPC      H16R          -39.1924170543       -0.3795093354        0.8822474166  MEMB      108             0.0000000000
     11854       108  POPC      H16S          -39.7383031596        0.3263502812       -0.5838425038  MEMB      108             0.0000000000
     11855       108  POPC      C217          -41.0482294611       -1.1944657400        0.0989682271  MEMB      108             0.0000000000
     11856       108  POPC      H17R          -41.4022736369       -1.6801294742        1.0333695210  MEMB      108             0.0000000000
     11857       108  POPC      H17S          -40.5046273467       -1.9390693495       -0.5210176946  MEMB      108             0.0000000000
     11858       108  POPC      C218          -42.2663816741       -0.7366328022       -0.6617949677  MEMB      108             0.0000000000
     11859       108  POPC      H18R          -42.8612134538       -0.0454300625       -0.0271796535  MEMB      108             0.0000000000
     11860       108  POPC      H18S          -42.9545502965       -1.5694187999       -0.9210485839  MEMB      108             0.0000000000
     11861       108  POPC      H18T          -42.0486474659       -0.2226923188       -1.6224083208  MEMB      108             0.0000000000
     11862       108  POPC      C33           -40.5549549261        1.5658543928       12.3418216438  MEMB      108             0.0000000000
     11863       108  POPC      H3X           -39.5748842174        1.1570098721       12.0152812020  MEMB      108             0.0000000000
     11864       108  POPC      H3Y           -40.7971874289        2.3492958303       11.5922458647  MEMB      108             0.0000000000
     11865       108  POPC      C34           -41.6378585191        0.4104623764       12.3618823532  MEMB      108             0.0000000000
     11866       108  POPC      H4X           -42.5587962391        0.8284279186       12.8217732793  MEMB      108             0.0000000000
     11867       108  POPC      H4Y           -41.1242568592       -0.3282770218       13.0136480537  MEMB      108             0.0000000000
     11868       108  POPC      C35           -42.0564927439        0.0921909325       10.8817896775  MEMB      108             0.0000000000
     11869       108  POPC      H5X           -41.1732691293       -0.1977867368       10.2733892121  MEMB      108             0.0000000000
     11870       108  POPC      H5Y           -42.4931707273        1.0253540981       10.4660490533  MEMB      108             0.0000000000
     11871       108  POPC      C36           -43.0803073351       -1.0264967475       10.6517250005  MEMB      108             0.0000000000
     11872       108  POPC      H6X           -44.0617370025       -0.7983211605       11.1197554080  MEMB      108             0.0000000000
     11873       108  POPC      H6Y           -42.5607475178       -1.8472859551       11.1908759418  MEMB      108             0.0000000000
     11874       108  POPC      C37           -43.1845635533       -1.4072710506        9.1601353322  MEMB      108             0.0000000000
     11875       108  POPC      H7X           -42.2160611313       -1.8622775547        8.8613153335  MEMB      108             0.0000000000
     11876       108  POPC      H7Y           -43.3078515962       -0.4690685609        8.5779862966  MEMB      108             0.0000000000
     11877       108  POPC      C38           -44.3058693315       -2.3816658454        8.9808063344  MEMB      108             0.0000000000
     11878       108  POPC      H8X           -44.1447623009       -3.1618128665        9.7552324900  MEMB      108             0.0000000000
     11879       108  POPC      H8Y           -44.1219729897       -2.9224274896        8.0278736260  MEMB      108             0.0000000000
     11880       108  POPC      C39           -45.6915517431       -1.8097999719        9.0196434113  MEMB      108             0.0000000000
     11881       108  POPC      H9X           -45.9932015789       -1.5451601953       10.0556423622  MEMB      108             0.0000000000
     11882       108  POPC      H9Y           -46.5245412215       -2.4619604152        8.6803266750  MEMB      108             0.0000000000
     11883       108  POPC      C310          -45.8397743783       -0.6629682111        8.0261632360  MEMB      108             0.0000000000
     11884       108  POPC      H10X          -45.1254729185        0.1615114761        8.2367039602  MEMB      108             0.0000000000
     11885       108  POPC      H10Y          -46.8841089476       -0.2950448833        8.1173721258  MEMB      108             0.0000000000
     11886       108  POPC      C311          -45.6586288914       -1.1016281598        6.5282006042  MEMB      108             0.0000000000
     11887       108  POPC      H11X          -46.3830528788       -1.9138803659        6.3050908621  MEMB      108             0.0000000000
     11888       108  POPC      H11Y          -44.6602304780       -1.5766300623        6.4191375628  MEMB      108             0.0000000000
     11889       108  POPC      C312          -45.6950182538       -0.0834062272        5.4198384152  MEMB      108             0.0000000000
     11890       108  POPC      H12X          -45.3079299497        0.9271726386        5.6712620279  MEMB      108             0.0000000000
     11891       108  POPC      H12Y          -46.7249776680        0.1335603162        5.0642678996  MEMB      108             0.0000000000
     11892       108  POPC      C313          -44.8391360772       -0.5923329886        4.2478051983  MEMB      108             0.0000000000
     11893       108  POPC      H13X          -45.3473816139       -1.4866267497        3.8279890442  MEMB      108             0.0000000000
     11894       108  POPC      H13Y          -43.8825357445       -0.8968925121        4.7237048416  MEMB      108             0.0000000000
     11895       108  POPC      C314          -44.6558133790        0.3710853511        3.0748088416  MEMB      108             0.0000000000
     11896       108  POPC      H14X          -43.8662718314       -0.0362364099        2.4077000217  MEMB      108             0.0000000000
     11897       108  POPC      H14Y          -44.2113599249        1.3077167823        3.4741877848  MEMB      108             0.0000000000
     11898       108  POPC      C315          -45.9784232109        0.7410100137        2.3467438794  MEMB      108             0.0000000000
     11899       108  POPC      H15X          -46.4737016912        1.5014031244        2.9876973218  MEMB      108             0.0000000000
     11900       108  POPC      H15Y          -46.6100268404       -0.1725193740        2.3760903355  MEMB      108             0.0000000000
     11901       108  POPC      C316          -45.8761908754        1.2742819280        0.9108303794  MEMB      108             0.0000000000
     11902       108  POPC      H16X          -46.7908377746        0.9827962411        0.3515635061  MEMB      108             0.0000000000
     11903       108  POPC      H16Y          -45.0872638945        0.6480358751        0.4420739505  MEMB      108             0.0000000000
     11904       108  POPC      H16Z          -45.5783321134        2.3372787657        0.7857744153  MEMB      108             0.0000000000
     11905       109  POPC      N              42.5237803412       20.2590021420       20.2700864475  MEMB      109             0.0000000000
     11906       109  POPC      C12            41.3275655806       20.4227768784       19.2781549979  MEMB      109             0.0000000000
     11907       109  POPC      H12A           40.6317281606       21.0538005130       19.8110897764  MEMB      109             0.0000000000
     11908       109  POPC      H12B           40.9143444596       19.4310325114       19.1681941454  MEMB      109             0.0000000000
     11909       109  POPC      C13            43.5666435876       19.4198821928       19.5179848373  MEMB      109             0.0000000000
     11910       109  POPC      H13A           43.8915275327       19.9925472138       18.6618860401  MEMB      109             0.0000000000
     11911       109  POPC      H13B           44.4540660816       19.1388734675       20.0656303417  MEMB      109             0.0000000000
     11912       109  POPC      H13C           43.1980627606       18.4612551251       19.1839452055  MEMB      109             0.0000000000
     11913       109  POPC      C14            43.0979046390       21.6229251603       20.5951491738  MEMB      109             0.0000000000
     11914       109  POPC      H14A           43.4442641415       22.1067935000       19.6938687482  MEMB      109             0.0000000000
     11915       109  POPC      H14B           42.4010914471       22.3033057561       21.0619827012  MEMB      109             0.0000000000
     11916       109  POPC      H14C           43.8965687690       21.4505512394       21.3014230272  MEMB      109             0.0000000000
     11917       109  POPC      C15            42.1278841378       19.5489026331       21.5468010726  MEMB      109             0.0000000000
     11918       109  POPC      H15A           41.5516410140       18.6739623375       21.2844588050  MEMB      109             0.0000000000
     11919       109  POPC      H15B           41.5729230170       20.2047790988       22.2012046894  MEMB      109             0.0000000000
     11920       109  POPC      H15C           43.0412043870       19.1941238130       22.0010894477  MEMB      109             0.0000000000
     11921       109  POPC      C11            41.4108333218       21.0183641097       17.7995039865  MEMB      109             0.0000000000
     11922       109  POPC      H11A           40.4020269544       21.0701681705       17.3369598824  MEMB      109             0.0000000000
     11923       109  POPC      H11B           41.9534645897       20.3236599123       17.1232952236  MEMB      109             0.0000000000
     11924       109  POPC      P              41.4922465704       23.5716449063       18.0883290779  MEMB      109             0.0000000000
     11925       109  POPC      O13            42.5396947965       24.5601880279       17.8988090851  MEMB      109             0.0000000000
     11926       109  POPC      O14            40.7795060416       23.5544316866       19.3978432941  MEMB      109             0.0000000000
     11927       109  POPC      O12            42.1681108702       22.1932425776       17.7046727338  MEMB      109             0.0000000000
     11928       109  POPC      O11            40.4567446119       23.7928630897       16.9026652965  MEMB      109             0.0000000000
     11929       109  POPC      C1             39.0878164495       23.5826267769       17.2333968026  MEMB      109             0.0000000000
     11930       109  POPC      HA             38.6931532992       24.4205775386       17.8469119338  MEMB      109             0.0000000000
     11931       109  POPC      HB             38.7788561029       22.6617423531       17.7726892672  MEMB      109             0.0000000000
     11932       109  POPC      C2             38.2847445316       23.4553278399       15.9049985909  MEMB      109             0.0000000000
     11933       109  POPC      HS             37.2732801699       23.1618415033       16.2587308230  MEMB      109             0.0000000000
     11934       109  POPC      O21            38.9093001028       22.4291372326       15.1329745723  MEMB      109             0.0000000000
     11935       109  POPC      C21            38.0617665804       21.8678829038       14.3212499109  MEMB      109             0.0000000000
     11936       109  POPC      O22            36.8833317749       22.1598053266       14.1247021352  MEMB      109             0.0000000000
     11937       109  POPC      C22            38.8336958209       20.7689388429       13.3447892935  MEMB      109             0.0000000000
     11938       109  POPC      H2R            38.7295230865       21.2420041082       12.3449499939  MEMB      109             0.0000000000
     11939       109  POPC      H2S            38.1745542772       19.8751259347       13.3139332355  MEMB      109             0.0000000000
     11940       109  POPC      C3             38.2454779246       24.8537522942       15.1970735723  MEMB      109             0.0000000000
     11941       109  POPC      HX             37.8317972058       25.4784193293       16.0174270907  MEMB      109             0.0000000000
     11942       109  POPC      HY             37.5544081198       24.7863202459       14.3297809596  MEMB      109             0.0000000000
     11943       109  POPC      O31            39.4764077933       25.4510641694       14.7836951055  MEMB      109             0.0000000000
     11944       109  POPC      C31            40.0362900444       24.8624080211       13.6732240965  MEMB      109             0.0000000000
     11945       109  POPC      O32            39.4064704237       24.2481994507       12.8260579964  MEMB      109             0.0000000000
     11946       109  POPC      C32            41.5577220618       25.0969769526       13.6034343214  MEMB      109             0.0000000000
     11947       109  POPC      H2X            41.9780318002       24.5108020875       14.4484550493  MEMB      109             0.0000000000
     11948       109  POPC      H2Y            41.8474630386       26.1594459265       13.7501683243  MEMB      109             0.0000000000
     11949       109  POPC      C23            40.2784835744       20.3474734695       13.8233740205  MEMB      109             0.0000000000
     11950       109  POPC      H3R            40.2366673190       19.7173248304       14.7374224769  MEMB      109             0.0000000000
     11951       109  POPC      H3S            40.7677113351       21.3045795255       14.1043099078  MEMB      109             0.0000000000
     11952       109  POPC      C24            41.1501226976       19.7364745521       12.7366984534  MEMB      109             0.0000000000
     11953       109  POPC      H4R            40.7101428304       18.7848909830       12.3689651016  MEMB      109             0.0000000000
     11954       109  POPC      H4S            42.1246701690       19.3732899922       13.1274352245  MEMB      109             0.0000000000
     11955       109  POPC      C25            41.4613595526       20.7137620861       11.5667670244  MEMB      109             0.0000000000
     11956       109  POPC      H5R            41.7408900937       21.6262974442       12.1355050700  MEMB      109             0.0000000000
     11957       109  POPC      H5S            40.5556037446       21.0283863723       11.0055726869  MEMB      109             0.0000000000
     11958       109  POPC      C26            42.5198899637       20.2699274125       10.5576475309  MEMB      109             0.0000000000
     11959       109  POPC      H6R            43.3459759492       19.7678146479       11.1051743381  MEMB      109             0.0000000000
     11960       109  POPC      H6S            42.9446349671       21.1896816150       10.1016154250  MEMB      109             0.0000000000
     11961       109  POPC      C27            42.1754963504       19.2425298726        9.4337712697  MEMB      109             0.0000000000
     11962       109  POPC      H7R            41.5887610043       18.5019394092       10.0182265718  MEMB      109             0.0000000000
     11963       109  POPC      H7S            43.0779746927       18.6675280319        9.1350629545  MEMB      109             0.0000000000
     11964       109  POPC      C28            41.3617216471       19.7761077365        8.2657517384  MEMB      109             0.0000000000
     11965       109  POPC      H8R            41.8822105852       20.6948578931        7.9203379878  MEMB      109             0.0000000000
     11966       109  POPC      H8S            40.3547022837       20.0343593966        8.6575922210  MEMB      109             0.0000000000
     11967       109  POPC      C29            41.3776076853       18.6811074494        7.1752846504  MEMB      109             0.0000000000
     11968       109  POPC      H91            40.5683737408       17.9468508373        7.3018062254  MEMB      109             0.0000000000
     11969       109  POPC      C210           42.2786812238       18.3508783743        6.2212567878  MEMB      109             0.0000000000
     11970       109  POPC      H101           42.0857565340       17.4726499535        5.5876208582  MEMB      109             0.0000000000
     11971       109  POPC      C211           43.6117115515       19.0747943700        6.0350160963  MEMB      109             0.0000000000
     11972       109  POPC      H11R           44.4051068254       18.2997250231        5.9708890493  MEMB      109             0.0000000000
     11973       109  POPC      H11S           43.8101915670       19.7293709599        6.9104908890  MEMB      109             0.0000000000
     11974       109  POPC      C212           43.8033318826       19.8736806403        4.7603198177  MEMB      109             0.0000000000
     11975       109  POPC      H12R           43.5541179184       19.2664143802        3.8639711274  MEMB      109             0.0000000000
     11976       109  POPC      H12S           44.8827002140       20.1030780071        4.6312392581  MEMB      109             0.0000000000
     11977       109  POPC      C213           42.9687902350       21.1386978850        4.6663229635  MEMB      109             0.0000000000
     11978       109  POPC      H13R           42.4420919866       21.3666021376        5.6176221331  MEMB      109             0.0000000000
     11979       109  POPC      H13S           42.0563198225       21.0638110731        4.0369496988  MEMB      109             0.0000000000
     11980       109  POPC      C214           43.7073711651       22.4577776045        4.5051886752  MEMB      109             0.0000000000
     11981       109  POPC      H14R           44.4228813800       22.5550354421        5.3495273714  MEMB      109             0.0000000000
     11982       109  POPC      H14S           43.0332576335       23.3269549407        4.6614665397  MEMB      109             0.0000000000
     11983       109  POPC      C215           44.3898149241       22.5844751272        3.0932893029  MEMB      109             0.0000000000
     11984       109  POPC      H15R           45.1937952824       21.8177296933        3.0871022935  MEMB      109             0.0000000000
     11985       109  POPC      H15S           44.9572397055       23.5375770020        3.0304658212  MEMB      109             0.0000000000
     11986       109  POPC      C216           43.5210851775       22.6510055640        1.8459611746  MEMB      109             0.0000000000
     11987       109  POPC      H16R           43.0095858144       23.6224365432        2.0162891355  MEMB      109             0.0000000000
     11988       109  POPC      H16S           42.7437610145       21.8572246807        1.8455914337  MEMB      109             0.0000000000
     11989       109  POPC      C217           44.2522896129       22.6243823022        0.4908736761  MEMB      109             0.0000000000
     11990       109  POPC      H17R           45.0512921203       23.3912946865        0.5789717641  MEMB      109             0.0000000000
     11991       109  POPC      H17S           43.4735112584       22.9486370859       -0.2320949427  MEMB      109             0.0000000000
     11992       109  POPC      C218           44.8059757904       21.1838811465        0.2391317769  MEMB      109             0.0000000000
     11993       109  POPC      H18R           45.6663922840       21.0484508897        0.9288147615  MEMB      109             0.0000000000
     11994       109  POPC      H18S           45.1287145517       21.2320847801       -0.8228653572  MEMB      109             0.0000000000
     11995       109  POPC      H18T           44.0591878237       20.3650975953        0.3180174550  MEMB      109             0.0000000000
     11996       109  POPC      C33            42.1171688128       24.6386673308       12.2510146347  MEMB      109             0.0000000000
     11997       109  POPC      H3X            41.6173194139       23.6657788921       12.0561822946  MEMB      109             0.0000000000
     11998       109  POPC      H3Y            43.1877839032       24.3506214098       12.3226656193  MEMB      109             0.0000000000
     11999       109  POPC      C34            41.8136127516       25.5979156361       11.0487063012  MEMB      109             0.0000000000
     12000       109  POPC      H4X            42.4126482464       26.5151938031       11.2333089129  MEMB      109             0.0000000000
     12001       109  POPC      H4Y            40.7726656188       25.9565845580       10.9000230061  MEMB      109             0.0000000000
     12002       109  POPC      C35            42.1430896161       25.0488632037        9.6413841586  MEMB      109             0.0000000000
     12003       109  POPC      H5X            43.0791092027       24.4508562523        9.6653841666  MEMB      109             0.0000000000
     12004       109  POPC      H5Y            42.2977639138       25.9299065767        8.9824759886  MEMB      109             0.0000000000
     12005       109  POPC      C36            40.9933652230       24.1841703157        9.1878634779  MEMB      109             0.0000000000
     12006       109  POPC      H6X            40.0835469452       24.7939325952        9.3742546776  MEMB      109             0.0000000000
     12007       109  POPC      H6Y            40.8982713079       23.2849370668        9.8333544603  MEMB      109             0.0000000000
     12008       109  POPC      C37            41.0684234906       23.7901089671        7.6841104001  MEMB      109             0.0000000000
     12009       109  POPC      H7X            41.9816906353       23.1769778696        7.5281165862  MEMB      109             0.0000000000
     12010       109  POPC      H7Y            41.3179998566       24.6125089029        6.9800581858  MEMB      109             0.0000000000
     12011       109  POPC      C38            39.8094021491       22.9910708791        7.3587377657  MEMB      109             0.0000000000
     12012       109  POPC      H8X            38.8491694229       23.3871653817        7.7529235642  MEMB      109             0.0000000000
     12013       109  POPC      H8Y            39.8164546294       22.0798862715        7.9943580494  MEMB      109             0.0000000000
     12014       109  POPC      C39            39.5297129637       22.5143158709        5.9476041092  MEMB      109             0.0000000000
     12015       109  POPC      H9X            38.6781200858       21.8033673201        5.8870853179  MEMB      109             0.0000000000
     12016       109  POPC      H9Y            40.4378414380       21.9404249904        5.6642801957  MEMB      109             0.0000000000
     12017       109  POPC      C310           39.1306872809       23.6310364523        4.9864530753  MEMB      109             0.0000000000
     12018       109  POPC      H10X           40.0091197752       24.3076169167        4.9163346936  MEMB      109             0.0000000000
     12019       109  POPC      H10Y           38.1908231509       24.0871185134        5.3645597799  MEMB      109             0.0000000000
     12020       109  POPC      C311           38.7926384180       23.1989845167        3.5928551710  MEMB      109             0.0000000000
     12021       109  POPC      H11X           38.5209339368       24.1318832923        3.0541549047  MEMB      109             0.0000000000
     12022       109  POPC      H11Y           37.8565266422       22.6029862210        3.6457854622  MEMB      109             0.0000000000
     12023       109  POPC      C312           39.7930388127       22.5629978250        2.6872187282  MEMB      109             0.0000000000
     12024       109  POPC      H12X           40.1674140713       21.5997199641        3.0949692214  MEMB      109             0.0000000000
     12025       109  POPC      H12Y           40.6841250926       23.2152479990        2.5653332462  MEMB      109             0.0000000000
     12026       109  POPC      C313           39.2659202295       22.2572741431        1.2908964484  MEMB      109             0.0000000000
     12027       109  POPC      H13X           38.8282701711       23.1767616231        0.8466828186  MEMB      109             0.0000000000
     12028       109  POPC      H13Y           38.4788552765       21.4990684014        1.4908301971  MEMB      109             0.0000000000
     12029       109  POPC      C314           40.3433084683       21.5978491043        0.3930119963  MEMB      109             0.0000000000
     12030       109  POPC      H14X           40.5489476126       20.6505989277        0.9359202730  MEMB      109             0.0000000000
     12031       109  POPC      H14Y           41.1963509965       22.2693615824        0.1569809760  MEMB      109             0.0000000000
     12032       109  POPC      C315           39.7532305664       21.1383792332       -0.8953437598  MEMB      109             0.0000000000
     12033       109  POPC      H15X           39.2681116410       21.9168760071       -1.5221801362  MEMB      109             0.0000000000
     12034       109  POPC      H15Y           38.9307146238       20.4506811230       -0.6040364867  MEMB      109             0.0000000000
     12035       109  POPC      C316           40.6738415249       20.3084541777       -1.7649508883  MEMB      109             0.0000000000
     12036       109  POPC      H16X           40.1338028378       19.8337353676       -2.6118998157  MEMB      109             0.0000000000
     12037       109  POPC      H16Y           41.2967287004       19.5464938434       -1.2494422627  MEMB      109             0.0000000000
     12038       109  POPC      H16Z           41.4798416622       20.9988927968       -2.0935546709  MEMB      109             0.0000000000
     12039       110  POPE      N             -50.7145049925       21.7866249279       19.7473212019  MEMB      110             0.0000000000
     12040       110  POPE      HN1           -49.8889464727       21.7926608358       20.3797897867  MEMB      110             0.0000000000
     12041       110  POPE      HN2           -50.3692244320       22.3983285894       18.9803793406  MEMB      110             0.0000000000
     12042       110  POPE      HN3           -51.5805587940       22.0941452931       20.2341293989  MEMB      110             0.0000000000
     12043       110  POPE      C12           -50.9292069413       20.3191251484       19.3628258345  MEMB      110             0.0000000000
     12044       110  POPE      H12A          -50.9757752218       19.8028378789       20.3454751917  MEMB      110             0.0000000000
     12045       110  POPE      H12B          -50.0751456345       19.9716022070       18.7430449992  MEMB      110             0.0000000000
     12046       110  POPE      C11           -52.3224416385       20.2977304314       18.6711726867  MEMB      110             0.0000000000
     12047       110  POPE      H11A          -52.6063403616       19.3736722580       18.1235970399  MEMB      110             0.0000000000
     12048       110  POPE      H11B          -52.1560141525       20.9543957814       17.7905970417  MEMB      110             0.0000000000
     12049       110  POPE      P             -54.7687759445       21.0955982550       18.8610518108  MEMB      110             0.0000000000
     12050       110  POPE      O13           -55.4809293879       22.1260815950       19.6739003568  MEMB      110             0.0000000000
     12051       110  POPE      O14           -55.6045879990       19.8876380455       18.6260489360  MEMB      110             0.0000000000
     12052       110  POPE      O11           -54.3540224463       21.7372874155       17.5130894040  MEMB      110             0.0000000000
     12053       110  POPE      O12           -53.3698866533       20.6218061826       19.5445897447  MEMB      110             0.0000000000
     12054       110  POPE      C1            -55.3097673931       22.1902541176       16.5576010497  MEMB      110             0.0000000000
     12055       110  POPE      HA            -54.9198936313       23.1004509051       16.0537546137  MEMB      110             0.0000000000
     12056       110  POPE      HB            -56.2446736817       22.6092844352       16.9873505737  MEMB      110             0.0000000000
     12057       110  POPE      C2            -55.4897057374       21.0942235427       15.4502654277  MEMB      110             0.0000000000
     12058       110  POPE      HS            -56.2029503798       20.3141891940       15.7925363700  MEMB      110             0.0000000000
     12059       110  POPE      O21           -54.2110069100       20.5109323844       15.1482430925  MEMB      110             0.0000000000
     12060       110  POPE      C21           -54.1095862861       19.2345639323       14.6938567913  MEMB      110             0.0000000000
     12061       110  POPE      O22           -55.0885286320       18.4778212485       14.5617105200  MEMB      110             0.0000000000
     12062       110  POPE      C22           -52.5599969385       18.9119807757       14.4550930918  MEMB      110             0.0000000000
     12063       110  POPE      H2R           -52.3306811130       17.9572600454       14.9749426976  MEMB      110             0.0000000000
     12064       110  POPE      H2S           -51.9093904489       19.7470424282       14.7922935711  MEMB      110             0.0000000000
     12065       110  POPE      C3            -56.0603362698       21.6233854529       14.0917983164  MEMB      110             0.0000000000
     12066       110  POPE      HX            -57.0250068911       22.1408026111       14.2815636849  MEMB      110             0.0000000000
     12067       110  POPE      HY            -56.3031526621       20.8076142319       13.3777405400  MEMB      110             0.0000000000
     12068       110  POPE      O31           -55.2071785621       22.7181799126       13.6824340549  MEMB      110             0.0000000000
     12069       110  POPE      C31           -54.6473707264       22.5169291454       12.4447028846  MEMB      110             0.0000000000
     12070       110  POPE      O32           -54.6897285070       21.4867460638       11.7692127885  MEMB      110             0.0000000000
     12071       110  POPE      C32           -53.6556658146       23.6894560965       12.1464006433  MEMB      110             0.0000000000
     12072       110  POPE      H2X           -52.7969790905       23.5620839443       12.8397649996  MEMB      110             0.0000000000
     12073       110  POPE      H2Y           -54.1918860553       24.6349637603       12.3761927647  MEMB      110             0.0000000000
     12074       110  POPE      C23           -52.3066649845       18.7986904354       13.0027282491  MEMB      110             0.0000000000
     12075       110  POPE      H3R           -52.5132016251       19.8186046631       12.6135771646  MEMB      110             0.0000000000
     12076       110  POPE      H3S           -53.0336915244       18.1203243817       12.5071752315  MEMB      110             0.0000000000
     12077       110  POPE      C24           -50.9037867817       18.3994934881       12.6936101780  MEMB      110             0.0000000000
     12078       110  POPE      H4R           -50.7277649619       17.4815770411       13.2942489575  MEMB      110             0.0000000000
     12079       110  POPE      H4S           -50.2304618978       19.1746206141       13.1180303764  MEMB      110             0.0000000000
     12080       110  POPE      C25           -50.5038620383       18.4118174655       11.1445200411  MEMB      110             0.0000000000
     12081       110  POPE      H5R           -51.0201411596       17.5452006015       10.6789535994  MEMB      110             0.0000000000
     12082       110  POPE      H5S           -49.3966630902       18.4025981732       11.0531611813  MEMB      110             0.0000000000
     12083       110  POPE      C26           -50.8905712088       19.4914221697       10.2128590650  MEMB      110             0.0000000000
     12084       110  POPE      H6R           -50.6103983548       20.4748385952       10.6472742969  MEMB      110             0.0000000000
     12085       110  POPE      H6S           -51.9974660303       19.5695060579       10.2677001529  MEMB      110             0.0000000000
     12086       110  POPE      C27           -50.2270972517       19.3809598439        8.7707284922  MEMB      110             0.0000000000
     12087       110  POPE      H7R           -49.1759758067       19.0303875324        8.8517455834  MEMB      110             0.0000000000
     12088       110  POPE      H7S           -50.0627693365       20.3866503577        8.3281181725  MEMB      110             0.0000000000
     12089       110  POPE      C28           -51.0282811494       18.4424073809        7.7853409093  MEMB      110             0.0000000000
     12090       110  POPE      H8R           -51.9484775514       18.0294140370        8.2511696343  MEMB      110             0.0000000000
     12091       110  POPE      H8S           -50.2730643449       17.6275795329        7.7804366055  MEMB      110             0.0000000000
     12092       110  POPE      C29           -51.1192080174       18.6402287159        6.3023482697  MEMB      110             0.0000000000
     12093       110  POPE      H91           -50.4976829073       17.9621092046        5.6991393714  MEMB      110             0.0000000000
     12094       110  POPE      C210          -51.8627260052       19.5653342806        5.6558723570  MEMB      110             0.0000000000
     12095       110  POPE      H101          -51.8611591353       19.5934021563        4.5562316148  MEMB      110             0.0000000000
     12096       110  POPE      C211          -52.7911412463       20.5007537848        6.4328812282  MEMB      110             0.0000000000
     12097       110  POPE      H11R          -52.2150970445       20.9911529628        7.2465162264  MEMB      110             0.0000000000
     12098       110  POPE      H11S          -53.5565236943       19.9800046587        7.0471535979  MEMB      110             0.0000000000
     12099       110  POPE      C212          -53.5477527067       21.5613215997        5.5904056318  MEMB      110             0.0000000000
     12100       110  POPE      H12R          -52.9393808022       22.1799438083        4.8964964791  MEMB      110             0.0000000000
     12101       110  POPE      H12S          -54.1462594576       22.2904388726        6.1773465833  MEMB      110             0.0000000000
     12102       110  POPE      C213          -54.6400463398       20.8886962244        4.7670102006  MEMB      110             0.0000000000
     12103       110  POPE      H13R          -55.3221488321       20.4492355769        5.5259119408  MEMB      110             0.0000000000
     12104       110  POPE      H13S          -54.1328883220       20.1771434795        4.0808583697  MEMB      110             0.0000000000
     12105       110  POPE      C214          -55.5751656963       21.8914857113        3.9909695971  MEMB      110             0.0000000000
     12106       110  POPE      H14R          -55.8844322010       22.7418357197        4.6356249404  MEMB      110             0.0000000000
     12107       110  POPE      H14S          -56.5313925671       21.3464475024        3.8396954248  MEMB      110             0.0000000000
     12108       110  POPE      C215          -55.0433052695       22.3353033836        2.5637563991  MEMB      110             0.0000000000
     12109       110  POPE      H15R          -55.9256924678       22.9186198062        2.2239681279  MEMB      110             0.0000000000
     12110       110  POPE      H15S          -55.0068686390       21.3524090958        2.0471204003  MEMB      110             0.0000000000
     12111       110  POPE      C216          -53.7247736562       23.0788816674        2.5775349152  MEMB      110             0.0000000000
     12112       110  POPE      H16R          -52.8535981708       22.3964347102        2.4793500808  MEMB      110             0.0000000000
     12113       110  POPE      H16S          -53.6324776149       23.6719889107        3.5124285540  MEMB      110             0.0000000000
     12114       110  POPE      C217          -53.4130283520       24.2232996653        1.5013582252  MEMB      110             0.0000000000
     12115       110  POPE      H17R          -52.4632622574       24.7314011464        1.7735677515  MEMB      110             0.0000000000
     12116       110  POPE      H17S          -54.2857868186       24.9059006781        1.5830227414  MEMB      110             0.0000000000
     12117       110  POPE      C218          -53.4011277971       23.6544895614        0.0773459223  MEMB      110             0.0000000000
     12118       110  POPE      H18R          -54.4109403198       23.2721845778       -0.1842690019  MEMB      110             0.0000000000
     12119       110  POPE      H18S          -52.7034573274       22.7922976013        0.0125237865  MEMB      110             0.0000000000
     12120       110  POPE      H18T          -53.0725839062       24.4823798758       -0.5867165974  MEMB      110             0.0000000000
     12121       110  POPE      C33           -53.1581277703       23.5734533590       10.6949896549  MEMB      110             0.0000000000
     12122       110  POPE      H3X           -54.0400154904       23.6777877713       10.0273748752  MEMB      110             0.0000000000
     12123       110  POPE      H3Y           -52.7281850788       22.5650687004       10.5143497877  MEMB      110             0.0000000000
     12124       110  POPE      C34           -52.0501885169       24.6660051549       10.3944936215  MEMB      110             0.0000000000
     12125       110  POPE      H4X           -51.1280411426       24.4578245524       10.9781256777  MEMB      110             0.0000000000
     12126       110  POPE      H4Y           -52.4248240763       25.6106400061       10.8435299596  MEMB      110             0.0000000000
     12127       110  POPE      C35           -51.7558946954       24.8417555351        8.9380005911  MEMB      110             0.0000000000
     12128       110  POPE      H5X           -51.2494428881       25.8283866596        8.8717719246  MEMB      110             0.0000000000
     12129       110  POPE      H5Y           -52.6980695294       24.7592353519        8.3550617328  MEMB      110             0.0000000000
     12130       110  POPE      C36           -50.6474210829       23.8094934460        8.4825812772  MEMB      110             0.0000000000
     12131       110  POPE      H6X           -51.0919571424       22.7960333323        8.3845644960  MEMB      110             0.0000000000
     12132       110  POPE      H6Y           -49.7928789183       23.8077387180        9.1925641478  MEMB      110             0.0000000000
     12133       110  POPE      C37           -50.1071311928       24.1568243440        7.0977489865  MEMB      110             0.0000000000
     12134       110  POPE      H7X           -49.5501084720       25.1022358757        7.2716564207  MEMB      110             0.0000000000
     12135       110  POPE      H7Y           -50.9406018447       24.3288251347        6.3835620824  MEMB      110             0.0000000000
     12136       110  POPE      C38           -49.1654785015       23.0161999835        6.6645136435  MEMB      110             0.0000000000
     12137       110  POPE      H8X           -49.7032602821       22.0466994411        6.7364894610  MEMB      110             0.0000000000
     12138       110  POPE      H8Y           -48.3559800709       22.9842514885        7.4247849675  MEMB      110             0.0000000000
     12139       110  POPE      C39           -48.6191848178       23.2191358366        5.2456164366  MEMB      110             0.0000000000
     12140       110  POPE      H9X           -47.6728510828       22.6539065358        5.1067321907  MEMB      110             0.0000000000
     12141       110  POPE      H9Y           -48.4079695543       24.2913834709        5.0456318807  MEMB      110             0.0000000000
     12142       110  POPE      C310          -49.5602261890       22.6496982826        4.1390347591  MEMB      110             0.0000000000
     12143       110  POPE      H10X          -50.4879155546       23.2502246958        4.0246610747  MEMB      110             0.0000000000
     12144       110  POPE      H10Y          -49.7200060613       21.5991582852        4.4633144633  MEMB      110             0.0000000000
     12145       110  POPE      C311          -48.9420253710       22.6857591012        2.7750149597  MEMB      110             0.0000000000
     12146       110  POPE      H11X          -48.1766528080       23.4725301713        2.6032099705  MEMB      110             0.0000000000
     12147       110  POPE      H11Y          -49.6699897883       23.0483216864        2.0180892991  MEMB      110             0.0000000000
     12148       110  POPE      C312          -48.6080121410       21.2055873057        2.3670816054  MEMB      110             0.0000000000
     12149       110  POPE      H12X          -49.5514243821       20.6307302310        2.4846989470  MEMB      110             0.0000000000
     12150       110  POPE      H12Y          -47.8545375275       20.7401444438        3.0378727392  MEMB      110             0.0000000000
     12151       110  POPE      C313          -48.1325478644       21.0888443451        0.8855516898  MEMB      110             0.0000000000
     12152       110  POPE      H13X          -47.6350001894       22.0642222047        0.6973901128  MEMB      110             0.0000000000
     12153       110  POPE      H13Y          -48.9630661290       21.0624466035        0.1480813870  MEMB      110             0.0000000000
     12154       110  POPE      C314          -47.1757869487       19.9083561602        0.5584476428  MEMB      110             0.0000000000
     12155       110  POPE      H14X          -47.6765734039       18.9343817774        0.3716121333  MEMB      110             0.0000000000
     12156       110  POPE      H14Y          -46.5540329829       19.7042038578        1.4562599023  MEMB      110             0.0000000000
     12157       110  POPE      C315          -46.2646549511       20.2015655631       -0.6534307070  MEMB      110             0.0000000000
     12158       110  POPE      H15X          -45.6161178875       19.3268415725       -0.8738370453  MEMB      110             0.0000000000
     12159       110  POPE      H15Y          -45.7019551958       21.1265888684       -0.4043898643  MEMB      110             0.0000000000
     12160       110  POPE      C316          -47.0080928926       20.5453103388       -1.9043316034  MEMB      110             0.0000000000
     12161       110  POPE      H16X          -47.6101720836       19.6506317968       -2.1714864785  MEMB      110             0.0000000000
     12162       110  POPE      H16Y          -46.2719376764       20.8121241208       -2.6924969473  MEMB      110             0.0000000000
     12163       110  POPE      H16Z          -47.8250053333       21.2826180563       -1.7515147270  MEMB      110             0.0000000000
     12164       111  POPE      N              29.6171245927      -21.5079376318       20.9373520337  MEMB      111             0.0000000000
     12165       111  POPE      HN1            30.2782520008      -21.8727829413       21.6524731279  MEMB      111             0.0000000000
     12166       111  POPE      HN2            28.6498374329      -21.8327838129       21.1384254920  MEMB      111             0.0000000000
     12167       111  POPE      HN3            29.9975793477      -21.8792989408       20.0435147803  MEMB      111             0.0000000000
     12168       111  POPE      C12            29.5473089176      -20.0712092598       20.6529925685  MEMB      111             0.0000000000
     12169       111  POPE      H12A           30.5504145896      -19.6274587394       20.4763978135  MEMB      111             0.0000000000
     12170       111  POPE      H12B           28.9414427138      -19.5583617949       21.4303177159  MEMB      111             0.0000000000
     12171       111  POPE      C11            28.6478467246      -19.8109235191       19.3907731969  MEMB      111             0.0000000000
     12172       111  POPE      H11A           29.1746054263      -20.2976591864       18.5422835723  MEMB      111             0.0000000000
     12173       111  POPE      H11B           28.5620408340      -18.7171590212       19.2157373586  MEMB      111             0.0000000000
     12174       111  POPE      P              26.5398386044      -20.4829603868       18.1781644160  MEMB      111             0.0000000000
     12175       111  POPE      O13            26.7718968513      -19.4162663340       17.1931595606  MEMB      111             0.0000000000
     12176       111  POPE      O14            25.1482325821      -20.8678961221       18.4736933257  MEMB      111             0.0000000000
     12177       111  POPE      O11            27.2500804900      -21.8148549462       17.6590779188  MEMB      111             0.0000000000
     12178       111  POPE      O12            27.3440136120      -20.2460286075       19.5147869759  MEMB      111             0.0000000000
     12179       111  POPE      C1             27.2905817072      -22.9441779408       18.5730288721  MEMB      111             0.0000000000
     12180       111  POPE      HA             26.3181798097      -23.1877276449       19.0520270047  MEMB      111             0.0000000000
     12181       111  POPE      HB             27.9527030653      -22.6342699160       19.4096131825  MEMB      111             0.0000000000
     12182       111  POPE      C2             27.9566796728      -24.2217907503       17.8574862023  MEMB      111             0.0000000000
     12183       111  POPE      HS             28.5710458620      -24.6592106689       18.6732920429  MEMB      111             0.0000000000
     12184       111  POPE      O21            28.7490199927      -23.8208079149       16.7549871517  MEMB      111             0.0000000000
     12185       111  POPE      C21            29.8207455495      -23.0660115470       16.9146477606  MEMB      111             0.0000000000
     12186       111  POPE      O22            30.3442536083      -22.7671768966       17.9383709033  MEMB      111             0.0000000000
     12187       111  POPE      C22            30.4095038698      -22.5716426520       15.5836947230  MEMB      111             0.0000000000
     12188       111  POPE      H2R            31.3777530593      -23.0388511631       15.3034608295  MEMB      111             0.0000000000
     12189       111  POPE      H2S            30.5276399980      -21.4717654574       15.6868205859  MEMB      111             0.0000000000
     12190       111  POPE      C3             26.9080514207      -25.2389617612       17.3577185549  MEMB      111             0.0000000000
     12191       111  POPE      HX             26.2509955929      -25.5715136833       18.1895886266  MEMB      111             0.0000000000
     12192       111  POPE      HY             27.3644700480      -26.0777439751       16.7898739915  MEMB      111             0.0000000000
     12193       111  POPE      O31            26.1212084691      -24.6070811866       16.3496871242  MEMB      111             0.0000000000
     12194       111  POPE      C31            24.8870593264      -24.1494957644       16.7162853165  MEMB      111             0.0000000000
     12195       111  POPE      O32            24.3260624026      -24.2545254036       17.7943682303  MEMB      111             0.0000000000
     12196       111  POPE      C32            24.1484825521      -23.7557582421       15.4419534713  MEMB      111             0.0000000000
     12197       111  POPE      H2X            23.1223205290      -23.3910756991       15.6617691331  MEMB      111             0.0000000000
     12198       111  POPE      H2Y            24.0755195832      -24.6601843099       14.8008523127  MEMB      111             0.0000000000
     12199       111  POPE      C23            29.4360533291      -22.7996342971       14.4082171133  MEMB      111             0.0000000000
     12200       111  POPE      H3R            28.4017228487      -22.4854422837       14.6646641831  MEMB      111             0.0000000000
     12201       111  POPE      H3S            29.3824151922      -23.8955577420       14.2338734837  MEMB      111             0.0000000000
     12202       111  POPE      C24            29.9035843653      -22.3355924116       13.0689467799  MEMB      111             0.0000000000
     12203       111  POPE      H4R            30.8283345424      -22.8717106235       12.7660686605  MEMB      111             0.0000000000
     12204       111  POPE      H4S            30.2001366061      -21.2781405529       13.2367965632  MEMB      111             0.0000000000
     12205       111  POPE      C25            28.7525990124      -22.3880174945       12.0672686964  MEMB      111             0.0000000000
     12206       111  POPE      H5R            28.2287504134      -23.3389483377       12.3031379511  MEMB      111             0.0000000000
     12207       111  POPE      H5S            29.1709662466      -22.4338976854       11.0390738557  MEMB      111             0.0000000000
     12208       111  POPE      C26            27.8413013184      -21.1478648712       12.0552055279  MEMB      111             0.0000000000
     12209       111  POPE      H6R            28.4219171166      -20.2026966885       12.1173608262  MEMB      111             0.0000000000
     12210       111  POPE      H6S            27.2909521183      -21.2206782316       13.0175648198  MEMB      111             0.0000000000
     12211       111  POPE      C27            26.9801370494      -21.1844436050       10.7626898311  MEMB      111             0.0000000000
     12212       111  POPE      H7R            26.1098191214      -20.4968176908       10.8262374992  MEMB      111             0.0000000000
     12213       111  POPE      H7S            26.5872434643      -22.1937886221       10.5153471888  MEMB      111             0.0000000000
     12214       111  POPE      C28            27.7010467586      -20.8276433837        9.4007998850  MEMB      111             0.0000000000
     12215       111  POPE      H8R            26.9973123295      -21.0854300240        8.5806624803  MEMB      111             0.0000000000
     12216       111  POPE      H8S            28.5559808982      -21.4889033604        9.1436153927  MEMB      111             0.0000000000
     12217       111  POPE      C29            28.0712549380      -19.3148480227        9.3769674510  MEMB      111             0.0000000000
     12218       111  POPE      H91            28.9381775677      -19.1067641606       10.0212854737  MEMB      111             0.0000000000
     12219       111  POPE      C210           27.5814828150      -18.4006185940        8.4856229892  MEMB      111             0.0000000000
     12220       111  POPE      H101           27.7957831134      -17.3394125322        8.6803462307  MEMB      111             0.0000000000
     12221       111  POPE      C211           26.6228533269      -18.4972125986        7.3816051727  MEMB      111             0.0000000000
     12222       111  POPE      H11R           25.6892336505      -18.9500773814        7.7785799171  MEMB      111             0.0000000000
     12223       111  POPE      H11S           27.0658705706      -19.0890000909        6.5522413191  MEMB      111             0.0000000000
     12224       111  POPE      C212           26.1043194574      -17.1798768904        6.6059018983  MEMB      111             0.0000000000
     12225       111  POPE      H12R           26.9692363874      -16.5895595571        6.2347345473  MEMB      111             0.0000000000
     12226       111  POPE      H12S           25.5533438150      -16.5710421043        7.3542780081  MEMB      111             0.0000000000
     12227       111  POPE      C213           25.2429713421      -17.5096954706        5.4599970966  MEMB      111             0.0000000000
     12228       111  POPE      H13R           24.2080457811      -17.7164351971        5.8071415574  MEMB      111             0.0000000000
     12229       111  POPE      H13S           25.5774168984      -18.4339657963        4.9421252733  MEMB      111             0.0000000000
     12230       111  POPE      C214           25.1978099172      -16.3378220645        4.4673467639  MEMB      111             0.0000000000
     12231       111  POPE      H14R           26.2320627023      -16.1541359702        4.1055430527  MEMB      111             0.0000000000
     12232       111  POPE      H14S           24.8782439632      -15.3950854756        4.9607496149  MEMB      111             0.0000000000
     12233       111  POPE      C215           24.0744170168      -16.6306632861        3.4216409383  MEMB      111             0.0000000000
     12234       111  POPE      H15R           23.8985927079      -15.7946349267        2.7113838646  MEMB      111             0.0000000000
     12235       111  POPE      H15S           23.1749923661      -16.6880907801        4.0713009615  MEMB      111             0.0000000000
     12236       111  POPE      C216           24.2583278840      -17.9411300471        2.5889325624  MEMB      111             0.0000000000
     12237       111  POPE      H16R           23.5290653351      -17.9694376954        1.7512601090  MEMB      111             0.0000000000
     12238       111  POPE      H16S           23.9730835589      -18.8137892774        3.2145695937  MEMB      111             0.0000000000
     12239       111  POPE      C217           25.6106170129      -18.2554065271        1.9074930742  MEMB      111             0.0000000000
     12240       111  POPE      H17R           25.7921213959      -19.2518320950        1.4508600121  MEMB      111             0.0000000000
     12241       111  POPE      H17S           26.4338768086      -18.1901621623        2.6506670068  MEMB      111             0.0000000000
     12242       111  POPE      C218           25.8757983475      -17.2956151976        0.6868613253  MEMB      111             0.0000000000
     12243       111  POPE      H18R           25.4133284870      -17.6274468942       -0.2672498597  MEMB      111             0.0000000000
     12244       111  POPE      H18S           26.9688800305      -17.4253737159        0.5363423065  MEMB      111             0.0000000000
     12245       111  POPE      H18T           25.6054964951      -16.2572290186        0.9749793095  MEMB      111             0.0000000000
     12246       111  POPE      C33            24.8300251819      -22.6221591983       14.7840419770  MEMB      111             0.0000000000
     12247       111  POPE      H3X            25.8849643009      -22.8333861321       14.5069001091  MEMB      111             0.0000000000
     12248       111  POPE      H3Y            24.9100008643      -21.7672947168       15.4891175245  MEMB      111             0.0000000000
     12249       111  POPE      C34            24.1658100766      -22.0294476860       13.5159713989  MEMB      111             0.0000000000
     12250       111  POPE      H4X            24.7110662294      -21.0767227579       13.3447065202  MEMB      111             0.0000000000
     12251       111  POPE      H4Y            23.0809295844      -21.8913006748       13.7116006789  MEMB      111             0.0000000000
     12252       111  POPE      C35            24.2655592638      -22.8763503422       12.2011550987  MEMB      111             0.0000000000
     12253       111  POPE      H5X            23.9635043905      -23.9241642634       12.4136867876  MEMB      111             0.0000000000
     12254       111  POPE      H5Y            25.3307477114      -23.0186911245       11.9193151836  MEMB      111             0.0000000000
     12255       111  POPE      C36            23.2783446239      -22.4841275896       11.1141270214  MEMB      111             0.0000000000
     12256       111  POPE      H6X            23.4071163943      -21.3970994401       10.9241042340  MEMB      111             0.0000000000
     12257       111  POPE      H6Y            22.1949315793      -22.6405172574       11.3040726161  MEMB      111             0.0000000000
     12258       111  POPE      C37            23.5503528117      -23.2703998700        9.7730547136  MEMB      111             0.0000000000
     12259       111  POPE      H7X            22.8401714897      -24.1240482727        9.8083817182  MEMB      111             0.0000000000
     12260       111  POPE      H7Y            24.5712174877      -23.6962620417        9.8769689757  MEMB      111             0.0000000000
     12261       111  POPE      C38            23.3914846603      -22.4510205029        8.4573256344  MEMB      111             0.0000000000
     12262       111  POPE      H8X            24.1273980271      -21.6204991502        8.4026751881  MEMB      111             0.0000000000
     12263       111  POPE      H8Y            22.4046747532      -21.9420289887        8.4191826012  MEMB      111             0.0000000000
     12264       111  POPE      C39            23.5166176015      -23.4024931485        7.2373248974  MEMB      111             0.0000000000
     12265       111  POPE      H9X            23.0870394793      -22.8073762539        6.4032865338  MEMB      111             0.0000000000
     12266       111  POPE      H9Y            22.8423324189      -24.2557150138        7.4646406425  MEMB      111             0.0000000000
     12267       111  POPE      C310           24.9352250764      -23.8911144474        6.8000822439  MEMB      111             0.0000000000
     12268       111  POPE      H10X           24.9361342943      -24.9511742277        6.4675257201  MEMB      111             0.0000000000
     12269       111  POPE      H10Y           25.6755128476      -23.7921033524        7.6225724755  MEMB      111             0.0000000000
     12270       111  POPE      C311           25.5385345306      -23.0849467485        5.6495257361  MEMB      111             0.0000000000
     12271       111  POPE      H11X           26.5757324322      -23.4229836869        5.4391149202  MEMB      111             0.0000000000
     12272       111  POPE      H11Y           25.5932305224      -22.0254993776        5.9795266024  MEMB      111             0.0000000000
     12273       111  POPE      C312           24.7647740944      -23.1656961695        4.2670259088  MEMB      111             0.0000000000
     12274       111  POPE      H12X           23.6752156974      -23.0506909716        4.4513008000  MEMB      111             0.0000000000
     12275       111  POPE      H12Y           24.8584181606      -24.2144160249        3.9124303604  MEMB      111             0.0000000000
     12276       111  POPE      C313           25.1557976518      -22.0301286425        3.3147477872  MEMB      111             0.0000000000
     12277       111  POPE      H13X           26.0866740890      -22.2745164548        2.7597114982  MEMB      111             0.0000000000
     12278       111  POPE      H13Y           25.3247858263      -21.0646969402        3.8379159952  MEMB      111             0.0000000000
     12279       111  POPE      C314           24.0510835945      -21.8546829347        2.2828807198  MEMB      111             0.0000000000
     12280       111  POPE      H14X           24.3422873923      -20.9798974141        1.6629830383  MEMB      111             0.0000000000
     12281       111  POPE      H14Y           23.0343761932      -21.8688259093        2.7305707487  MEMB      111             0.0000000000
     12282       111  POPE      C315           24.0744291962      -23.0783305225        1.3139097555  MEMB      111             0.0000000000
     12283       111  POPE      H15X           23.1498136685      -22.9157263709        0.7198001519  MEMB      111             0.0000000000
     12284       111  POPE      H15Y           23.9181028136      -24.0278904696        1.8690843943  MEMB      111             0.0000000000
     12285       111  POPE      C316           25.2708716754      -23.0331454447        0.3666047751  MEMB      111             0.0000000000
     12286       111  POPE      H16X           26.2090532499      -23.0517826515        0.9614056404  MEMB      111             0.0000000000
     12287       111  POPE      H16Y           25.1024832225      -22.0832600144       -0.1844704885  MEMB      111             0.0000000000
     12288       111  POPE      H16Z           25.3134276755      -23.9077822743       -0.3171506916  MEMB      111             0.0000000000
     12289       112  POPC      N              40.3796434610       -1.9416049789       20.2229177215  MEMB      112             0.0000000000
     12290       112  POPC      C12            40.4460160585       -3.4521578205       20.0032897197  MEMB      112             0.0000000000
     12291       112  POPC      H12A           39.6970908061       -3.6213480486       19.2437598202  MEMB      112             0.0000000000
     12292       112  POPC      H12B           40.2723827088       -3.9468306413       20.9475089944  MEMB      112             0.0000000000
     12293       112  POPC      C13            41.6339778799       -1.4936917659       20.9281700226  MEMB      112             0.0000000000
     12294       112  POPC      H13A           42.5769594522       -1.6635437101       20.4298367574  MEMB      112             0.0000000000
     12295       112  POPC      H13B           41.5305472223       -0.4215139726       21.0065101150  MEMB      112             0.0000000000
     12296       112  POPC      H13C           41.6090885034       -1.8369546312       21.9518649190  MEMB      112             0.0000000000
     12297       112  POPC      C14            40.3106834334       -1.1934898941       18.8798434775  MEMB      112             0.0000000000
     12298       112  POPC      H14A           41.2863240973       -1.2549376096       18.4207686835  MEMB      112             0.0000000000
     12299       112  POPC      H14B           39.5371723497       -1.6189550302       18.2577020148  MEMB      112             0.0000000000
     12300       112  POPC      H14C           40.1499070072       -0.1529510467       19.1203213198  MEMB      112             0.0000000000
     12301       112  POPC      C15            39.1583240144       -1.6289665798       21.0496890125  MEMB      112             0.0000000000
     12302       112  POPC      H15A           39.1938420718       -0.5775970806       21.2941488637  MEMB      112             0.0000000000
     12303       112  POPC      H15B           38.9178928868       -2.2660326419       21.8879848094  MEMB      112             0.0000000000
     12304       112  POPC      H15C           38.3551823470       -1.9095167837       20.3843657521  MEMB      112             0.0000000000
     12305       112  POPC      C11            41.7664290168       -4.0264046055       19.4492825140  MEMB      112             0.0000000000
     12306       112  POPC      H11A           41.6175457076       -5.1256583490       19.3876721057  MEMB      112             0.0000000000
     12307       112  POPC      H11B           42.5138552405       -3.8623490404       20.2547393361  MEMB      112             0.0000000000
     12308       112  POPC      P              43.5747289668       -3.5080508921       17.7315481475  MEMB      112             0.0000000000
     12309       112  POPC      O13            43.8113041337       -4.8279366737       17.0812317716  MEMB      112             0.0000000000
     12310       112  POPC      O14            44.4963364489       -3.0882715771       18.7971865618  MEMB      112             0.0000000000
     12311       112  POPC      O12            42.0659332212       -3.3789176523       18.2364727139  MEMB      112             0.0000000000
     12312       112  POPC      O11            43.7350844583       -2.4184267499       16.6203683394  MEMB      112             0.0000000000
     12313       112  POPC      C1             42.6726465838       -1.9521313743       15.8884436915  MEMB      112             0.0000000000
     12314       112  POPC      HA             42.9851735808       -0.9998609949       15.4090389643  MEMB      112             0.0000000000
     12315       112  POPC      HB             41.8108710860       -1.7257528281       16.5520828879  MEMB      112             0.0000000000
     12316       112  POPC      C2             42.3469521254       -2.8530421526       14.6566813798  MEMB      112             0.0000000000
     12317       112  POPC      HS             41.9387548321       -3.8265110953       15.0031695809  MEMB      112             0.0000000000
     12318       112  POPC      O21            43.4984758584       -3.1223175772       13.9601950001  MEMB      112             0.0000000000
     12319       112  POPC      C21            43.5189760878       -3.9429637333       12.9311398290  MEMB      112             0.0000000000
     12320       112  POPC      O22            42.6310176477       -4.8144089525       12.7269832174  MEMB      112             0.0000000000
     12321       112  POPC      C22            44.7761160202       -3.9186959353       12.0665053849  MEMB      112             0.0000000000
     12322       112  POPC      H2R            45.3274460629       -4.8764359221       11.9520921667  MEMB      112             0.0000000000
     12323       112  POPC      H2S            45.3531827472       -3.0522789827       12.4546246506  MEMB      112             0.0000000000
     12324       112  POPC      C3             41.3055492300       -2.2688001250       13.7675137791  MEMB      112             0.0000000000
     12325       112  POPC      HX             40.4604779116       -2.1114881962       14.4713803062  MEMB      112             0.0000000000
     12326       112  POPC      HY             40.9163616980       -3.0389110142       13.0676684283  MEMB      112             0.0000000000
     12327       112  POPC      O31            41.8051215887       -1.1552206189       12.9515500713  MEMB      112             0.0000000000
     12328       112  POPC      C31            40.8558075993       -0.6088790079       12.2726755605  MEMB      112             0.0000000000
     12329       112  POPC      O32            39.7516090361       -1.0524614541       11.9709948635  MEMB      112             0.0000000000
     12330       112  POPC      C32            41.4145575373        0.7249195188       11.6702842589  MEMB      112             0.0000000000
     12331       112  POPC      H2X            42.0409196276        1.1728894269       12.4711051519  MEMB      112             0.0000000000
     12332       112  POPC      H2Y            40.5453955224        1.3905124835       11.4809042854  MEMB      112             0.0000000000
     12333       112  POPC      C23            44.3228243503       -3.5426365655       10.6519804844  MEMB      112             0.0000000000
     12334       112  POPC      H3R            45.2763035644       -3.2159822152       10.1845453124  MEMB      112             0.0000000000
     12335       112  POPC      H3S            43.5894606845       -2.7086782981       10.6201642636  MEMB      112             0.0000000000
     12336       112  POPC      C24            43.7007406468       -4.6436059574        9.7341103018  MEMB      112             0.0000000000
     12337       112  POPC      H4R            42.6365069374       -4.9514254426        9.8176254972  MEMB      112             0.0000000000
     12338       112  POPC      H4S            44.2647134016       -5.5560747861       10.0233449747  MEMB      112             0.0000000000
     12339       112  POPC      C25            43.9878355599       -4.2643347362        8.2465405998  MEMB      112             0.0000000000
     12340       112  POPC      H5R            43.7815089715       -3.1824587817        8.1006141303  MEMB      112             0.0000000000
     12341       112  POPC      H5S            43.2334870289       -4.8609165448        7.6903310933  MEMB      112             0.0000000000
     12342       112  POPC      C26            45.3664175453       -4.5563665556        7.6455717087  MEMB      112             0.0000000000
     12343       112  POPC      H6R            45.7320169453       -5.5836570743        7.8584849392  MEMB      112             0.0000000000
     12344       112  POPC      H6S            46.1045488442       -3.9238366803        8.1835213464  MEMB      112             0.0000000000
     12345       112  POPC      C27            45.5162453432       -4.2569181356        6.1215229704  MEMB      112             0.0000000000
     12346       112  POPC      H7R            44.6656914257       -3.5611304052        5.9579426498  MEMB      112             0.0000000000
     12347       112  POPC      H7S            45.4989070689       -5.2291825094        5.5841946377  MEMB      112             0.0000000000
     12348       112  POPC      C28            46.8264170557       -3.4889949532        5.8279580163  MEMB      112             0.0000000000
     12349       112  POPC      H8R            47.6518439202       -3.7964874984        6.5050396822  MEMB      112             0.0000000000
     12350       112  POPC      H8S            46.6244044090       -2.4391545871        6.1301949878  MEMB      112             0.0000000000
     12351       112  POPC      C29            47.2520603199       -3.6852925307        4.3428684727  MEMB      112             0.0000000000
     12352       112  POPC      H91            48.0591896542       -4.4313845926        4.2994029876  MEMB      112             0.0000000000
     12353       112  POPC      C210           46.7538149391       -3.1754620604        3.2206111801  MEMB      112             0.0000000000
     12354       112  POPC      H101           47.2772119039       -3.4059503993        2.2809674960  MEMB      112             0.0000000000
     12355       112  POPC      C211           45.6227646943       -2.1687184731        3.0636473758  MEMB      112             0.0000000000
     12356       112  POPC      H11R           45.0974564601       -2.0783463472        4.0384321215  MEMB      112             0.0000000000
     12357       112  POPC      H11S           44.8653123395       -2.4246208916        2.2922186908  MEMB      112             0.0000000000
     12358       112  POPC      C212           46.1953889448       -0.8111590178        2.4364293179  MEMB      112             0.0000000000
     12359       112  POPC      H12R           46.6685743511       -1.1094055479        1.4765008278  MEMB      112             0.0000000000
     12360       112  POPC      H12S           46.9449620394       -0.3703954015        3.1279411322  MEMB      112             0.0000000000
     12361       112  POPC      C213           45.2204554715        0.2234146912        2.2361090354  MEMB      112             0.0000000000
     12362       112  POPC      H13R           45.7236887720        1.0071236127        1.6304064387  MEMB      112             0.0000000000
     12363       112  POPC      H13S           45.0310226366        0.7065741240        3.2184506278  MEMB      112             0.0000000000
     12364       112  POPC      C214           43.9225792580       -0.1519501036        1.5703858992  MEMB      112             0.0000000000
     12365       112  POPC      H14R           43.1713133863       -0.6755928499        2.1994486904  MEMB      112             0.0000000000
     12366       112  POPC      H14S           44.1372642682       -0.8083634842        0.7001261311  MEMB      112             0.0000000000
     12367       112  POPC      C215           43.2765914996        1.0222210903        0.7911644889  MEMB      112             0.0000000000
     12368       112  POPC      H15R           44.1203291828        1.6670924407        0.4647158380  MEMB      112             0.0000000000
     12369       112  POPC      H15S           42.5731969519        1.5574076568        1.4643148682  MEMB      112             0.0000000000
     12370       112  POPC      C216           42.4793744296        0.5882728987       -0.4822909751  MEMB      112             0.0000000000
     12371       112  POPC      H16R           41.6963682693        1.3750828112       -0.5286778009  MEMB      112             0.0000000000
     12372       112  POPC      H16S           41.8909709105       -0.2914923319       -0.1444809703  MEMB      112             0.0000000000
     12373       112  POPC      C217           43.1745751337        0.6427233302       -1.8151431349  MEMB      112             0.0000000000
     12374       112  POPC      H17R           43.8297032251       -0.2422089304       -1.6667422894  MEMB      112             0.0000000000
     12375       112  POPC      H17S           43.7845533967        1.5618769037       -1.9470689822  MEMB      112             0.0000000000
     12376       112  POPC      C218           42.2981234040        0.3243489985       -3.0735973994  MEMB      112             0.0000000000
     12377       112  POPC      H18R           41.7012181066        1.2518883786       -3.2066262103  MEMB      112             0.0000000000
     12378       112  POPC      H18S           41.7469666050       -0.6400602642       -3.0950798439  MEMB      112             0.0000000000
     12379       112  POPC      H18T           42.9802319683        0.3025367694       -3.9502805807  MEMB      112             0.0000000000
     12380       112  POPC      C33            42.1455375960        0.4654669748       10.3445702743  MEMB      112             0.0000000000
     12381       112  POPC      H3X            41.5554728555       -0.0418443857        9.5516139990  MEMB      112             0.0000000000
     12382       112  POPC      H3Y            43.0232754742       -0.1308108211       10.6737358375  MEMB      112             0.0000000000
     12383       112  POPC      C34            42.6723205866        1.7290863912        9.6765130101  MEMB      112             0.0000000000
     12384       112  POPC      H4X            43.0448972765        2.4035788140       10.4768675788  MEMB      112             0.0000000000
     12385       112  POPC      H4Y            41.7522432615        2.1002127427        9.1764687196  MEMB      112             0.0000000000
     12386       112  POPC      C35            43.8936006984        1.5109982869        8.7694669150  MEMB      112             0.0000000000
     12387       112  POPC      H5X            44.7194819511        1.0628128139        9.3622327188  MEMB      112             0.0000000000
     12388       112  POPC      H5Y            44.2161385812        2.5233034918        8.4446156639  MEMB      112             0.0000000000
     12389       112  POPC      C36            43.6912015739        0.5660267061        7.5561831870  MEMB      112             0.0000000000
     12390       112  POPC      H6X            43.0487521208       -0.2556368767        7.9388695316  MEMB      112             0.0000000000
     12391       112  POPC      H6Y            44.6117589229       -0.0323134881        7.3862304249  MEMB      112             0.0000000000
     12392       112  POPC      C37            43.2076068623        1.0588386582        6.2577204731  MEMB      112             0.0000000000
     12393       112  POPC      H7X            43.9527487499        1.8199288728        5.9417678621  MEMB      112             0.0000000000
     12394       112  POPC      H7Y            42.2001466302        1.5166578771        6.3564428604  MEMB      112             0.0000000000
     12395       112  POPC      C38            43.0513835027       -0.0163473119        5.0950978525  MEMB      112             0.0000000000
     12396       112  POPC      H8X            44.0521957815       -0.4098357504        4.8160597618  MEMB      112             0.0000000000
     12397       112  POPC      H8Y            42.6044111013        0.5227659585        4.2326055055  MEMB      112             0.0000000000
     12398       112  POPC      C39            42.1371519520       -1.1264033571        5.4937705793  MEMB      112             0.0000000000
     12399       112  POPC      H9X            41.1731653061       -0.6497703084        5.7728262615  MEMB      112             0.0000000000
     12400       112  POPC      H9Y            42.5256088690       -1.8360921482        6.2551932502  MEMB      112             0.0000000000
     12401       112  POPC      C310           41.8173256874       -2.0932345028        4.3266782656  MEMB      112             0.0000000000
     12402       112  POPC      H10X           42.7195125354       -2.5873158606        3.9068407496  MEMB      112             0.0000000000
     12403       112  POPC      H10Y           41.4118819025       -1.4996342971        3.4795803290  MEMB      112             0.0000000000
     12404       112  POPC      C311           40.7509267993       -3.1272567297        4.7671984021  MEMB      112             0.0000000000
     12405       112  POPC      H11X           39.8601628208       -2.7080937675        5.2821381996  MEMB      112             0.0000000000
     12406       112  POPC      H11Y           41.1446145100       -3.8364734332        5.5263703778  MEMB      112             0.0000000000
     12407       112  POPC      C312           40.3914082612       -4.1584296744        3.6844103457  MEMB      112             0.0000000000
     12408       112  POPC      H12X           39.8379059641       -3.6654146431        2.8568283174  MEMB      112             0.0000000000
     12409       112  POPC      H12Y           39.8185313042       -4.9634669756        4.1923949463  MEMB      112             0.0000000000
     12410       112  POPC      C313           41.5836010090       -4.8461194621        2.9823034748  MEMB      112             0.0000000000
     12411       112  POPC      H13X           42.3065007656       -4.0866555353        2.6149454190  MEMB      112             0.0000000000
     12412       112  POPC      H13Y           41.4370886104       -5.5110206462        2.1043736523  MEMB      112             0.0000000000
     12413       112  POPC      C314           42.3272425920       -5.8035103731        3.9739231451  MEMB      112             0.0000000000
     12414       112  POPC      H14X           41.6253098694       -6.6210864130        4.2444444694  MEMB      112             0.0000000000
     12415       112  POPC      H14Y           42.5568605101       -5.3237473448        4.9493328546  MEMB      112             0.0000000000
     12416       112  POPC      C315           43.6363343233       -6.2909817771        3.5106456016  MEMB      112             0.0000000000
     12417       112  POPC      H15X           44.0826279486       -6.8173197411        4.3813419688  MEMB      112             0.0000000000
     12418       112  POPC      H15Y           44.3104034145       -5.4668241013        3.1932880634  MEMB      112             0.0000000000
     12419       112  POPC      C316           43.4606686852       -7.2171247771        2.3370770760  MEMB      112             0.0000000000
     12420       112  POPC      H16X           42.8460582529       -6.6784804648        1.5844571686  MEMB      112             0.0000000000
     12421       112  POPC      H16Y           42.8631196385       -8.0852149408        2.6887532803  MEMB      112             0.0000000000
     12422       112  POPC      H16Z           44.4471862019       -7.5376877481        1.9391537074  MEMB      112             0.0000000000
     12423       113  POPC      N             -55.0751116915       38.2747815097       17.7445465671  MEMB      113             0.0000000000
     12424       113  POPC      C12           -53.7537224178       37.7119217689       17.5466115990  MEMB      113             0.0000000000
     12425       113  POPC      H12A          -52.9738673874       38.4353157584       17.7334999229  MEMB      113             0.0000000000
     12426       113  POPC      H12B          -53.6356684357       37.2865528360       16.5609521669  MEMB      113             0.0000000000
     12427       113  POPC      C13           -55.2278287719       38.9305709458       19.1057092930  MEMB      113             0.0000000000
     12428       113  POPC      H13A          -56.2709722836       39.0940937591       19.3326719402  MEMB      113             0.0000000000
     12429       113  POPC      H13B          -54.7413469753       38.3381114423       19.8664504609  MEMB      113             0.0000000000
     12430       113  POPC      H13C          -54.8420817283       39.9391649084       19.0873395749  MEMB      113             0.0000000000
     12431       113  POPC      C14           -55.3369908628       39.2849417293       16.6876327305  MEMB      113             0.0000000000
     12432       113  POPC      H14A          -54.5118141146       39.9711930773       16.8082243693  MEMB      113             0.0000000000
     12433       113  POPC      H14B          -55.2351067433       38.9441231689       15.6678963521  MEMB      113             0.0000000000
     12434       113  POPC      H14C          -56.2592213434       39.7483853563       17.0056120336  MEMB      113             0.0000000000
     12435       113  POPC      C15           -56.1381252076       37.1838783450       17.7852596989  MEMB      113             0.0000000000
     12436       113  POPC      H15A          -55.8737879930       36.4280825887       17.0604848071  MEMB      113             0.0000000000
     12437       113  POPC      H15B          -57.1079400012       37.6447425484       17.6692275394  MEMB      113             0.0000000000
     12438       113  POPC      H15C          -56.0140608173       36.8010186557       18.7874704863  MEMB      113             0.0000000000
     12439       113  POPC      C11           -53.3386784653       36.5371715072       18.4066327330  MEMB      113             0.0000000000
     12440       113  POPC      H11A          -52.3946237104       36.1620625941       17.9567717460  MEMB      113             0.0000000000
     12441       113  POPC      H11B          -54.0214856224       35.6608536212       18.3938940334  MEMB      113             0.0000000000
     12442       113  POPC      P             -51.9143246742       37.5935805533       20.4046298768  MEMB      113             0.0000000000
     12443       113  POPC      O13           -51.0912638489       36.3991589584       20.8535343599  MEMB      113             0.0000000000
     12444       113  POPC      O14           -52.3098203150       38.5723085484       21.4414504391  MEMB      113             0.0000000000
     12445       113  POPC      O12           -53.2404151216       36.9380987889       19.7655102699  MEMB      113             0.0000000000
     12446       113  POPC      O11           -51.1876961932       38.3122183629       19.2584824658  MEMB      113             0.0000000000
     12447       113  POPC      C1            -50.6846076930       39.6573289134       19.5251518542  MEMB      113             0.0000000000
     12448       113  POPC      HA            -49.8886992851       39.6719201719       20.3001601319  MEMB      113             0.0000000000
     12449       113  POPC      HB            -51.5334861621       40.3302423890       19.7719590855  MEMB      113             0.0000000000
     12450       113  POPC      C2            -49.9034942985       40.1234259190       18.2945859296  MEMB      113             0.0000000000
     12451       113  POPC      HS            -49.8234802672       41.2302674275       18.2414739609  MEMB      113             0.0000000000
     12452       113  POPC      O21           -50.6175602912       39.7428144351       17.0839893594  MEMB      113             0.0000000000
     12453       113  POPC      C21           -51.5628994056       40.6665889761       16.7492943098  MEMB      113             0.0000000000
     12454       113  POPC      O22           -51.9534318445       41.6212985860       17.4113194210  MEMB      113             0.0000000000
     12455       113  POPC      C22           -51.9442110863       40.3753806286       15.3011562828  MEMB      113             0.0000000000
     12456       113  POPC      H2R           -52.7280621688       39.5906076179       15.2376769494  MEMB      113             0.0000000000
     12457       113  POPC      H2S           -51.1291926168       39.9435403148       14.6818180878  MEMB      113             0.0000000000
     12458       113  POPC      C3            -48.4853911926       39.4897546579       18.2445955777  MEMB      113             0.0000000000
     12459       113  POPC      HX            -48.0484318604       39.6559687277       19.2524450395  MEMB      113             0.0000000000
     12460       113  POPC      HY            -47.8603032632       39.9282029520       17.4375333889  MEMB      113             0.0000000000
     12461       113  POPC      O31           -48.6471380316       38.0736450034       18.2018262268  MEMB      113             0.0000000000
     12462       113  POPC      C31           -48.4549863246       37.4926435541       16.9197751118  MEMB      113             0.0000000000
     12463       113  POPC      O32           -48.3011960373       38.0796925296       15.9023217439  MEMB      113             0.0000000000
     12464       113  POPC      C32           -48.6252975908       35.9748126416       17.0690741344  MEMB      113             0.0000000000
     12465       113  POPC      H2X           -49.2980999969       35.7584126735       17.9262957972  MEMB      113             0.0000000000
     12466       113  POPC      H2Y           -47.6158149702       35.5504990136       17.2567524553  MEMB      113             0.0000000000
     12467       113  POPC      C23           -52.3835600074       41.6994472663       14.6345048199  MEMB      113             0.0000000000
     12468       113  POPC      H3R           -53.2686240971       42.1150967339       15.1619685267  MEMB      113             0.0000000000
     12469       113  POPC      H3S           -52.7760272900       41.3061962434       13.6724009418  MEMB      113             0.0000000000
     12470       113  POPC      C24           -51.2202283700       42.7336723021       14.5606269166  MEMB      113             0.0000000000
     12471       113  POPC      H4R           -50.8071000127       42.9103586499       15.5767115380  MEMB      113             0.0000000000
     12472       113  POPC      H4S           -51.6398242682       43.7351080874       14.3252832037  MEMB      113             0.0000000000
     12473       113  POPC      C25           -49.9889032543       42.2163402652       13.7770498433  MEMB      113             0.0000000000
     12474       113  POPC      H5R           -49.6468672192       41.2333475245       14.1657108313  MEMB      113             0.0000000000
     12475       113  POPC      H5S           -49.1554667274       42.9154309279       14.0028297297  MEMB      113             0.0000000000
     12476       113  POPC      C26           -50.0948367005       42.1095375576       12.2394348184  MEMB      113             0.0000000000
     12477       113  POPC      H6R           -50.8825506598       41.3831689427       11.9458089445  MEMB      113             0.0000000000
     12478       113  POPC      H6S           -49.2665812788       41.5433423339       11.7622173409  MEMB      113             0.0000000000
     12479       113  POPC      C27           -50.2959940899       43.4819417705       11.6019291621  MEMB      113             0.0000000000
     12480       113  POPC      H7R           -49.3440376906       44.0532368973       11.5604329878  MEMB      113             0.0000000000
     12481       113  POPC      H7S           -50.9755751075       44.0840859004       12.2421740326  MEMB      113             0.0000000000
     12482       113  POPC      C28           -50.9794216157       43.3866031058       10.1971500511  MEMB      113             0.0000000000
     12483       113  POPC      H8R           -50.3656434015       42.5867786683        9.7303757160  MEMB      113             0.0000000000
     12484       113  POPC      H8S           -50.7918967593       44.3529566776        9.6820618934  MEMB      113             0.0000000000
     12485       113  POPC      C29           -52.4849094211       43.1341237566       10.4001035800  MEMB      113             0.0000000000
     12486       113  POPC      H91           -52.9319003832       43.5560972756       11.3123187641  MEMB      113             0.0000000000
     12487       113  POPC      C210          -53.1783264663       42.1762441904        9.7959816576  MEMB      113             0.0000000000
     12488       113  POPC      H101          -54.2658255589       42.0876766853        9.9356284554  MEMB      113             0.0000000000
     12489       113  POPC      C211          -52.6772907425       41.1393850501        8.8077532011  MEMB      113             0.0000000000
     12490       113  POPC      H11R          -52.6007416684       40.1708329507        9.3466118063  MEMB      113             0.0000000000
     12491       113  POPC      H11S          -51.6701871538       41.3255902573        8.3771831371  MEMB      113             0.0000000000
     12492       113  POPC      C212          -53.6334513647       40.9087635848        7.5937329205  MEMB      113             0.0000000000
     12493       113  POPC      H12R          -54.6688411269       40.8508740172        7.9924038124  MEMB      113             0.0000000000
     12494       113  POPC      H12S          -53.4375426335       39.9681401379        7.0359086793  MEMB      113             0.0000000000
     12495       113  POPC      C213          -53.5281985501       41.9846603818        6.4705234248  MEMB      113             0.0000000000
     12496       113  POPC      H13R          -52.4639480864       42.0083522941        6.1525138340  MEMB      113             0.0000000000
     12497       113  POPC      H13S          -53.6956201110       42.9512639456        6.9920294987  MEMB      113             0.0000000000
     12498       113  POPC      C214          -54.4659300952       41.8920373520        5.2750285880  MEMB      113             0.0000000000
     12499       113  POPC      H14R          -54.2072973723       40.9142283006        4.8153334149  MEMB      113             0.0000000000
     12500       113  POPC      H14S          -54.3469427457       42.7330663900        4.5589043854  MEMB      113             0.0000000000
     12501       113  POPC      C215          -55.9257034344       41.6974561389        5.6435060494  MEMB      113             0.0000000000
     12502       113  POPC      H15R          -56.3243764849       42.6064376797        6.1426390879  MEMB      113             0.0000000000
     12503       113  POPC      H15S          -56.0235855315       40.9055437502        6.4165617265  MEMB      113             0.0000000000
     12504       113  POPC      C216          -56.8520529823       41.2066846334        4.4287695849  MEMB      113             0.0000000000
     12505       113  POPC      H16R          -57.8487606777       41.0399948728        4.8904083156  MEMB      113             0.0000000000
     12506       113  POPC      H16S          -56.3961300752       40.2781739627        4.0234018718  MEMB      113             0.0000000000
     12507       113  POPC      C217          -56.9272246695       42.1899789531        3.2763304447  MEMB      113             0.0000000000
     12508       113  POPC      H17R          -55.9124188269       42.5241685059        2.9716868145  MEMB      113             0.0000000000
     12509       113  POPC      H17S          -57.4057490037       43.1610174139        3.5261698351  MEMB      113             0.0000000000
     12510       113  POPC      C218          -57.7311080838       41.5885588628        2.0827710093  MEMB      113             0.0000000000
     12511       113  POPC      H18R          -58.7430274440       41.3524432120        2.4759505132  MEMB      113             0.0000000000
     12512       113  POPC      H18S          -57.1623072002       40.6801396768        1.7902627683  MEMB      113             0.0000000000
     12513       113  POPC      H18T          -57.8169753379       42.2266913722        1.1773792634  MEMB      113             0.0000000000
     12514       113  POPC      C33           -49.1180734736       35.3220147433       15.7784200183  MEMB      113             0.0000000000
     12515       113  POPC      H3X           -48.8982208987       34.2335009831       15.8119421895  MEMB      113             0.0000000000
     12516       113  POPC      H3Y           -48.4791786996       35.8489409231       15.0378235138  MEMB      113             0.0000000000
     12517       113  POPC      C34           -50.6788322252       35.4949202994       15.5901840302  MEMB      113             0.0000000000
     12518       113  POPC      H4X           -50.9136357898       36.5795192393       15.5369547212  MEMB      113             0.0000000000
     12519       113  POPC      H4Y           -51.0502918917       34.9286524740       16.4709108671  MEMB      113             0.0000000000
     12520       113  POPC      C35           -51.1713082878       34.8555592006       14.3010366793  MEMB      113             0.0000000000
     12521       113  POPC      H5X           -52.2792932700       34.7922576697       14.3528342840  MEMB      113             0.0000000000
     12522       113  POPC      H5Y           -50.8990188515       33.7785908409       14.2831843240  MEMB      113             0.0000000000
     12523       113  POPC      C36           -50.6111670731       35.4136085478       12.9652035041  MEMB      113             0.0000000000
     12524       113  POPC      H6X           -50.8340712687       34.7309870418       12.1174640473  MEMB      113             0.0000000000
     12525       113  POPC      H6Y           -49.5157564880       35.5208611591       13.1165088049  MEMB      113             0.0000000000
     12526       113  POPC      C37           -51.1808653965       36.8603043389       12.5425576512  MEMB      113             0.0000000000
     12527       113  POPC      H7X           -50.7308194699       37.5042858160       13.3280941943  MEMB      113             0.0000000000
     12528       113  POPC      H7Y           -52.2290961155       36.8662841261       12.9106572826  MEMB      113             0.0000000000
     12529       113  POPC      C38           -51.0203445281       37.1122649767       11.0545438760  MEMB      113             0.0000000000
     12530       113  POPC      H8X           -51.3347890443       38.1747436042       10.9733959653  MEMB      113             0.0000000000
     12531       113  POPC      H8Y           -51.7122724476       36.5301622548       10.4090100116  MEMB      113             0.0000000000
     12532       113  POPC      C39           -49.5995070069       37.1524302102       10.4793103099  MEMB      113             0.0000000000
     12533       113  POPC      H9X           -49.0958503425       36.1660303119       10.3917527978  MEMB      113             0.0000000000
     12534       113  POPC      H9Y           -48.9067660295       37.7311065859       11.1270484738  MEMB      113             0.0000000000
     12535       113  POPC      C310          -49.4273556536       37.7869644492        9.1226431058  MEMB      113             0.0000000000
     12536       113  POPC      H10X          -48.3576862676       37.6950744155        8.8368369622  MEMB      113             0.0000000000
     12537       113  POPC      H10Y          -49.7182771056       38.8591340073        9.1108722761  MEMB      113             0.0000000000
     12538       113  POPC      C311          -50.2035833852       37.1099033860        7.9681230545  MEMB      113             0.0000000000
     12539       113  POPC      H11X          -51.2922326929       37.3053265566        8.0728774742  MEMB      113             0.0000000000
     12540       113  POPC      H11Y          -50.0970505620       36.0040313694        7.9637928239  MEMB      113             0.0000000000
     12541       113  POPC      C312          -49.7194561746       37.4665446007        6.5155207240  MEMB      113             0.0000000000
     12542       113  POPC      H12X          -48.8559038736       36.8272312712        6.2328966219  MEMB      113             0.0000000000
     12543       113  POPC      H12Y          -49.4951378389       38.5487112342        6.4018679148  MEMB      113             0.0000000000
     12544       113  POPC      C313          -50.8055843931       37.1739716556        5.4103647580  MEMB      113             0.0000000000
     12545       113  POPC      H13X          -51.6286295984       37.8648258138        5.6925677122  MEMB      113             0.0000000000
     12546       113  POPC      H13Y          -51.0805646040       36.0992840982        5.3490996973  MEMB      113             0.0000000000
     12547       113  POPC      C314          -50.3452079039       37.5845926735        4.0441628526  MEMB      113             0.0000000000
     12548       113  POPC      H14X          -49.5407841276       36.9408665030        3.6284225416  MEMB      113             0.0000000000
     12549       113  POPC      H14Y          -49.9885865820       38.6246910727        4.2033419354  MEMB      113             0.0000000000
     12550       113  POPC      C315          -51.5362453559       37.3725928808        3.0412718329  MEMB      113             0.0000000000
     12551       113  POPC      H15X          -52.5336479673       37.7120932653        3.3937618633  MEMB      113             0.0000000000
     12552       113  POPC      H15Y          -51.6079456183       36.2959705064        2.7765749361  MEMB      113             0.0000000000
     12553       113  POPC      C316          -51.3044334139       37.9489441942        1.6399277330  MEMB      113             0.0000000000
     12554       113  POPC      H16X          -52.2127982300       37.9081812040        1.0015448825  MEMB      113             0.0000000000
     12555       113  POPC      H16Y          -50.5064371252       37.4942626051        1.0147974982  MEMB      113             0.0000000000
     12556       113  POPC      H16Z          -51.0009513137       39.0163734519        1.6929750245  MEMB      113             0.0000000000
     12557       114  POPC      N              -3.8858196882      -45.8060279134       18.7009800901  MEMB      114             0.0000000000
     12558       114  POPC      C12            -3.0026265478      -45.0679518535       17.7492089390  MEMB      114             0.0000000000
     12559       114  POPC      H12A           -3.1151546953      -44.0008173792       17.8715263745  MEMB      114             0.0000000000
     12560       114  POPC      H12B           -3.3677822383      -45.1897409450       16.7401356700  MEMB      114             0.0000000000
     12561       114  POPC      C13            -3.9769017327      -45.0635081537       20.0010019905  MEMB      114             0.0000000000
     12562       114  POPC      H13A           -4.7142941458      -45.4510104620       20.6883843173  MEMB      114             0.0000000000
     12563       114  POPC      H13B           -3.0137807687      -45.0004078714       20.4855806722  MEMB      114             0.0000000000
     12564       114  POPC      H13C           -4.3362528277      -44.0735104331       19.7618967610  MEMB      114             0.0000000000
     12565       114  POPC      C14            -5.3088868342      -45.7237116291       18.1263725207  MEMB      114             0.0000000000
     12566       114  POPC      H14A           -5.4437028616      -46.4254896914       17.3165994996  MEMB      114             0.0000000000
     12567       114  POPC      H14B           -6.0750146027      -45.9808213393       18.8428520936  MEMB      114             0.0000000000
     12568       114  POPC      H14C           -5.5565060141      -44.7507907827       17.7282396221  MEMB      114             0.0000000000
     12569       114  POPC      C15            -3.5171494926      -47.2557610631       18.8939401613  MEMB      114             0.0000000000
     12570       114  POPC      H15A           -3.6471589521      -47.6854532804       17.9116662046  MEMB      114             0.0000000000
     12571       114  POPC      H15B           -4.3241747044      -47.6482626961       19.4948168018  MEMB      114             0.0000000000
     12572       114  POPC      H15C           -2.5512616060      -47.4054041482       19.3533610500  MEMB      114             0.0000000000
     12573       114  POPC      C11            -1.5137297852      -45.3498564676       17.8215905644  MEMB      114             0.0000000000
     12574       114  POPC      H11A           -0.7866653764      -44.9398200938       17.0883998255  MEMB      114             0.0000000000
     12575       114  POPC      H11B           -1.2062826481      -46.3848872624       17.5598491664  MEMB      114             0.0000000000
     12576       114  POPC      P              -0.3399407402      -43.7015429661       19.6114513522  MEMB      114             0.0000000000
     12577       114  POPC      O13             0.6973913979      -44.0567960810       20.6312237782  MEMB      114             0.0000000000
     12578       114  POPC      O14            -1.4748789602      -42.8277477244       19.9877863971  MEMB      114             0.0000000000
     12579       114  POPC      O12            -0.9759201813      -45.1870619321       19.1029993842  MEMB      114             0.0000000000
     12580       114  POPC      O11             0.3984975057      -42.9626761981       18.3734448177  MEMB      114             0.0000000000
     12581       114  POPC      C1              1.4668328537      -43.6028893562       17.6873700924  MEMB      114             0.0000000000
     12582       114  POPC      HA              1.3862903131      -44.6958027360       17.8700561348  MEMB      114             0.0000000000
     12583       114  POPC      HB              2.3831332714      -43.1402378329       18.1124204431  MEMB      114             0.0000000000
     12584       114  POPC      C2              1.5506534241      -43.2810999266       16.1487762771  MEMB      114             0.0000000000
     12585       114  POPC      HS              1.9591057507      -42.2548803291       16.0289390933  MEMB      114             0.0000000000
     12586       114  POPC      O21             0.2819422131      -43.3999654543       15.5192114508  MEMB      114             0.0000000000
     12587       114  POPC      C21            -0.1793879395      -42.3118466132       14.9537436221  MEMB      114             0.0000000000
     12588       114  POPC      O22             0.3615346445      -41.2121487664       14.7859974665  MEMB      114             0.0000000000
     12589       114  POPC      C22            -1.5842720331      -42.5723683577       14.4800572297  MEMB      114             0.0000000000
     12590       114  POPC      H2R            -2.2539376043      -41.8651462790       15.0145718365  MEMB      114             0.0000000000
     12591       114  POPC      H2S            -1.9509431085      -43.6047831971       14.6644287892  MEMB      114             0.0000000000
     12592       114  POPC      C3              2.6235116745      -44.1949996751       15.5483896902  MEMB      114             0.0000000000
     12593       114  POPC      HX              3.5137954740      -44.1658147067       16.2123662153  MEMB      114             0.0000000000
     12594       114  POPC      HY              2.8350404201      -43.7174110294       14.5678359211  MEMB      114             0.0000000000
     12595       114  POPC      O31             2.1637082688      -45.5808876785       15.4474474189  MEMB      114             0.0000000000
     12596       114  POPC      C31             1.7605846299      -45.8811672704       14.1968806055  MEMB      114             0.0000000000
     12597       114  POPC      O32             2.0542265501      -45.3052705837       13.1786987374  MEMB      114             0.0000000000
     12598       114  POPC      C32             0.9011451306      -47.1374935553       14.1972745676  MEMB      114             0.0000000000
     12599       114  POPC      H2X             0.4087139073      -47.1837331159       15.1921086627  MEMB      114             0.0000000000
     12600       114  POPC      H2Y             1.5476522762      -48.0375450168       14.2763748820  MEMB      114             0.0000000000
     12601       114  POPC      C23            -1.5371930625      -42.2883538496       12.9358788893  MEMB      114             0.0000000000
     12602       114  POPC      H3R            -1.2596994386      -41.2459610918       12.6699171965  MEMB      114             0.0000000000
     12603       114  POPC      H3S            -2.5801098431      -42.4116789679       12.5733370832  MEMB      114             0.0000000000
     12604       114  POPC      C24            -0.5583167914      -43.2495676432       12.2788065542  MEMB      114             0.0000000000
     12605       114  POPC      H4R            -0.7272952943      -44.2869102812       12.6389280070  MEMB      114             0.0000000000
     12606       114  POPC      H4S             0.4405151925      -42.8058929744       12.4783275178  MEMB      114             0.0000000000
     12607       114  POPC      C25            -0.6570923792      -43.2066271998       10.7456781329  MEMB      114             0.0000000000
     12608       114  POPC      H5R             0.2433182088      -43.7219251809       10.3481233259  MEMB      114             0.0000000000
     12609       114  POPC      H5S            -0.5903136320      -42.1856367455       10.3127343059  MEMB      114             0.0000000000
     12610       114  POPC      C26            -1.8497883480      -43.9005036396       10.1977825142  MEMB      114             0.0000000000
     12611       114  POPC      H6R            -2.7417128140      -43.4211333556       10.6549428985  MEMB      114             0.0000000000
     12612       114  POPC      H6S            -1.7975953924      -44.9344182641       10.6010402360  MEMB      114             0.0000000000
     12613       114  POPC      C27            -1.9814567538      -44.0254498457        8.6431408697  MEMB      114             0.0000000000
     12614       114  POPC      H7R            -2.9547805734      -44.4699865199        8.3442279344  MEMB      114             0.0000000000
     12615       114  POPC      H7S            -1.2072040076      -44.7149893037        8.2439053045  MEMB      114             0.0000000000
     12616       114  POPC      C28            -1.9662188298      -42.6336800170        7.9478684230  MEMB      114             0.0000000000
     12617       114  POPC      H8R            -0.9428685918      -42.2098782503        8.0342830502  MEMB      114             0.0000000000
     12618       114  POPC      H8S            -2.5142703963      -41.9456009472        8.6264753811  MEMB      114             0.0000000000
     12619       114  POPC      C29            -2.5446743846      -42.5898532907        6.5329808360  MEMB      114             0.0000000000
     12620       114  POPC      H91            -3.4361697426      -43.2218223059        6.4070789204  MEMB      114             0.0000000000
     12621       114  POPC      C210           -2.1345651067      -41.8380544286        5.5568068084  MEMB      114             0.0000000000
     12622       114  POPC      H101           -2.6166638439      -41.9393656246        4.5732833131  MEMB      114             0.0000000000
     12623       114  POPC      C211           -0.9778472641      -40.8770222202        5.5308778640  MEMB      114             0.0000000000
     12624       114  POPC      H11R           -0.3682717537      -40.7868859731        6.4553311287  MEMB      114             0.0000000000
     12625       114  POPC      H11S           -1.3307265002      -39.8501481568        5.2956623846  MEMB      114             0.0000000000
     12626       114  POPC      C212           -0.1131190547      -41.3609397083        4.3339998342  MEMB      114             0.0000000000
     12627       114  POPC      H12R           -0.6681770376      -41.6791829015        3.4257311493  MEMB      114             0.0000000000
     12628       114  POPC      H12S            0.3368570885      -42.3069333722        4.7040521750  MEMB      114             0.0000000000
     12629       114  POPC      C213            0.9538129048      -40.3463496204        3.9651257531  MEMB      114             0.0000000000
     12630       114  POPC      H13R            1.9413412838      -40.4538959719        4.4626624763  MEMB      114             0.0000000000
     12631       114  POPC      H13S            0.7308223242      -39.2652009259        4.0904800276  MEMB      114             0.0000000000
     12632       114  POPC      C214            1.4412146254      -40.4501400626        2.4956860709  MEMB      114             0.0000000000
     12633       114  POPC      H14R            2.1532102195      -39.6182065062        2.3078855503  MEMB      114             0.0000000000
     12634       114  POPC      H14S            0.5352897609      -40.1777937552        1.9130647545  MEMB      114             0.0000000000
     12635       114  POPC      C215            1.9963682772      -41.7841595136        1.9447172354  MEMB      114             0.0000000000
     12636       114  POPC      H15R            1.2927321146      -42.1669692768        1.1748639391  MEMB      114             0.0000000000
     12637       114  POPC      H15S            1.9683147247      -42.4795268641        2.8107422610  MEMB      114             0.0000000000
     12638       114  POPC      C216            3.4329771598      -41.7154491303        1.4386135378  MEMB      114             0.0000000000
     12639       114  POPC      H16R            4.0370104959      -41.0051883030        2.0427604873  MEMB      114             0.0000000000
     12640       114  POPC      H16S            3.4155913147      -41.1935487338        0.4579816585  MEMB      114             0.0000000000
     12641       114  POPC      C217            4.0705081522      -43.0940933528        1.2504202113  MEMB      114             0.0000000000
     12642       114  POPC      H17R            4.9797771385      -43.0407162715        0.6142599303  MEMB      114             0.0000000000
     12643       114  POPC      H17S            3.3998984757      -43.7058863410        0.6098638893  MEMB      114             0.0000000000
     12644       114  POPC      C218            4.4821083675      -43.7736815872        2.5045316921  MEMB      114             0.0000000000
     12645       114  POPC      H18R            4.9861155925      -44.7447910879        2.3115449351  MEMB      114             0.0000000000
     12646       114  POPC      H18S            3.6676894678      -43.9894568361        3.2287446980  MEMB      114             0.0000000000
     12647       114  POPC      H18T            5.2430687150      -43.1637164060        3.0367004276  MEMB      114             0.0000000000
     12648       114  POPC      C33            -0.1297374299      -47.2177883812       12.9975253239  MEMB      114             0.0000000000
     12649       114  POPC      H3X             0.5048859310      -47.2965305976       12.0890245585  MEMB      114             0.0000000000
     12650       114  POPC      H3Y            -0.8211907886      -46.3512127067       12.9250002852  MEMB      114             0.0000000000
     12651       114  POPC      C34            -1.0881562827      -48.4705438565       12.9667604881  MEMB      114             0.0000000000
     12652       114  POPC      H4X            -1.8384176983      -48.3402418525       13.7757416021  MEMB      114             0.0000000000
     12653       114  POPC      H4Y            -0.3685285880      -49.3039392983       13.1147772126  MEMB      114             0.0000000000
     12654       114  POPC      C35            -1.7780192448      -48.4955545317       11.5688514919  MEMB      114             0.0000000000
     12655       114  POPC      H5X            -2.2810502290      -47.5399947152       11.3077254276  MEMB      114             0.0000000000
     12656       114  POPC      H5Y            -2.7059700888      -49.1004040413       11.6547845477  MEMB      114             0.0000000000
     12657       114  POPC      C36            -0.8969407183      -49.0631869655       10.4554283208  MEMB      114             0.0000000000
     12658       114  POPC      H6X            -0.9358611907      -50.1726960270       10.4978078507  MEMB      114             0.0000000000
     12659       114  POPC      H6Y             0.0914655241      -48.5947154704       10.6501294301  MEMB      114             0.0000000000
     12660       114  POPC      C37            -1.3817107864      -48.5146374383        9.1012166401  MEMB      114             0.0000000000
     12661       114  POPC      H7X            -1.2406540789      -47.4276441580        9.2825149057  MEMB      114             0.0000000000
     12662       114  POPC      H7Y            -2.4387183908      -48.7139983980        8.8231677273  MEMB      114             0.0000000000
     12663       114  POPC      C38            -0.3590612758      -48.8129848989        7.9683817646  MEMB      114             0.0000000000
     12664       114  POPC      H8X            -0.6190858685      -49.8383346018        7.6287255220  MEMB      114             0.0000000000
     12665       114  POPC      H8Y             0.6560825187      -48.7348341059        8.4130122236  MEMB      114             0.0000000000
     12666       114  POPC      C39            -0.5287920258      -47.9219278897        6.7513889892  MEMB      114             0.0000000000
     12667       114  POPC      H9X             0.3511607368      -48.0667694568        6.0887994836  MEMB      114             0.0000000000
     12668       114  POPC      H9Y            -0.4460349431      -46.9618941109        7.3043873041  MEMB      114             0.0000000000
     12669       114  POPC      C310           -1.7522983424      -48.2673820765        5.8776712619  MEMB      114             0.0000000000
     12670       114  POPC      H10X           -2.6230599738      -48.1422212655        6.5562213766  MEMB      114             0.0000000000
     12671       114  POPC      H10Y           -1.7468024605      -49.3505264034        5.6305082807  MEMB      114             0.0000000000
     12672       114  POPC      C311           -1.8573343064      -47.2637244236        4.6564169723  MEMB      114             0.0000000000
     12673       114  POPC      H11X           -2.6587887778      -47.7073876583        4.0278041010  MEMB      114             0.0000000000
     12674       114  POPC      H11Y           -0.9065059815      -47.0476883213        4.1238997055  MEMB      114             0.0000000000
     12675       114  POPC      C312           -2.3894627606      -45.9361525408        5.1070604465  MEMB      114             0.0000000000
     12676       114  POPC      H12X           -1.7934996234      -45.5212252932        5.9478839124  MEMB      114             0.0000000000
     12677       114  POPC      H12Y           -3.3891931548      -46.1918681941        5.5187269556  MEMB      114             0.0000000000
     12678       114  POPC      C313           -2.4734977825      -44.8468536514        4.0686445709  MEMB      114             0.0000000000
     12679       114  POPC      H13X           -1.4715322104      -44.3955094114        3.9053228995  MEMB      114             0.0000000000
     12680       114  POPC      H13Y           -3.0939288590      -43.9681403383        4.3465826495  MEMB      114             0.0000000000
     12681       114  POPC      C314           -3.0887912847      -45.2392242072        2.6975469723  MEMB      114             0.0000000000
     12682       114  POPC      H14X           -4.1494700351      -45.4323641559        2.9658336715  MEMB      114             0.0000000000
     12683       114  POPC      H14Y           -2.5730212565      -46.0549004772        2.1471149334  MEMB      114             0.0000000000
     12684       114  POPC      C315           -3.2430324848      -44.0708155851        1.7230324279  MEMB      114             0.0000000000
     12685       114  POPC      H15X           -2.1973634307      -43.7505769481        1.5272163884  MEMB      114             0.0000000000
     12686       114  POPC      H15Y           -3.8837270497      -43.3654624646        2.2942671920  MEMB      114             0.0000000000
     12687       114  POPC      C316           -4.0333483851      -44.4612329458        0.4584282755  MEMB      114             0.0000000000
     12688       114  POPC      H16X           -5.0944165942      -44.3759523314        0.7765214406  MEMB      114             0.0000000000
     12689       114  POPC      H16Y           -3.7027150175      -45.4936523968        0.2152970566  MEMB      114             0.0000000000
     12690       114  POPC      H16Z           -3.9394677741      -43.7577069934       -0.3962976814  MEMB      114             0.0000000000
     12691       115  POPE      N              10.4885598485       37.8592117497       19.5107139522  MEMB      115             0.0000000000
     12692       115  POPE      HN1            10.8576868607       36.9966294148       19.0620525376  MEMB      115             0.0000000000
     12693       115  POPE      HN2            11.1205856305       38.2082206340       20.2592698349  MEMB      115             0.0000000000
     12694       115  POPE      HN3             9.5112881704       37.7516101732       19.8497742398  MEMB      115             0.0000000000
     12695       115  POPE      C12            10.5881527488       38.8156151727       18.3139082077  MEMB      115             0.0000000000
     12696       115  POPE      H12A           10.1142224503       39.7369875791       18.7148871539  MEMB      115             0.0000000000
     12697       115  POPE      H12B            9.9670531673       38.4142872196       17.4847567334  MEMB      115             0.0000000000
     12698       115  POPE      C11            12.0153163812       38.9725387612       17.7389260678  MEMB      115             0.0000000000
     12699       115  POPE      H11A           11.9398708514       39.6973970028       16.9003502332  MEMB      115             0.0000000000
     12700       115  POPE      H11B           12.3342980000       37.9935979748       17.3214975304  MEMB      115             0.0000000000
     12701       115  POPE      P              12.7224853092       40.8685107429       19.3677711920  MEMB      115             0.0000000000
     12702       115  POPE      O13            14.0416525949       41.3503288734       19.8250188197  MEMB      115             0.0000000000
     12703       115  POPE      O14            11.6669086053       40.7226061630       20.4014204887  MEMB      115             0.0000000000
     12704       115  POPE      O11            12.1808767759       41.6686035607       18.1249343572  MEMB      115             0.0000000000
     12705       115  POPE      O12            12.9273277367       39.4194577731       18.7173069115  MEMB      115             0.0000000000
     12706       115  POPE      C1             11.4655838406       42.8217841765       18.1600531759  MEMB      115             0.0000000000
     12707       115  POPE      HA             12.1186408589       43.7204916642       18.1727911666  MEMB      115             0.0000000000
     12708       115  POPE      HB             10.8083459829       42.6503603929       19.0392422432  MEMB      115             0.0000000000
     12709       115  POPE      C2             10.5308832046       42.8661538157       16.9519545498  MEMB      115             0.0000000000
     12710       115  POPE      HS              9.7982884533       43.6818112920       17.1317574212  MEMB      115             0.0000000000
     12711       115  POPE      O21             9.7586131744       41.7114428375       16.7600153527  MEMB      115             0.0000000000
     12712       115  POPE      C21             8.5673697374       41.7273898915       16.0712862175  MEMB      115             0.0000000000
     12713       115  POPE      O22             8.0604438511       42.7169429193       15.6249593849  MEMB      115             0.0000000000
     12714       115  POPE      C22             8.0578052934       40.3331518739       15.9278739701  MEMB      115             0.0000000000
     12715       115  POPE      H2R             6.9930069853       40.3397599267       15.6108858657  MEMB      115             0.0000000000
     12716       115  POPE      H2S             8.1370881257       39.8022531604       16.9005927124  MEMB      115             0.0000000000
     12717       115  POPE      C3             11.3023854980       43.0618911956       15.6330109950  MEMB      115             0.0000000000
     12718       115  POPE      HX             11.9840029879       43.8963240097       15.9040099042  MEMB      115             0.0000000000
     12719       115  POPE      HY             10.6343603723       43.3700599726       14.8004874922  MEMB      115             0.0000000000
     12720       115  POPE      O31            11.9910336192       41.8670303409       15.2553131926  MEMB      115             0.0000000000
     12721       115  POPE      C31            12.8647439794       41.9257593059       14.2184902928  MEMB      115             0.0000000000
     12722       115  POPE      O32            13.3262420395       42.9563779188       13.8548753912  MEMB      115             0.0000000000
     12723       115  POPE      C32            12.9232600993       40.5595739475       13.5039567268  MEMB      115             0.0000000000
     12724       115  POPE      H2X            12.4745594290       40.5378869984       12.4878276950  MEMB      115             0.0000000000
     12725       115  POPE      H2Y            12.3688457003       39.7865912117       14.0779284178  MEMB      115             0.0000000000
     12726       115  POPE      C23             8.9257872704       39.6854851957       14.7867121175  MEMB      115             0.0000000000
     12727       115  POPE      H3R             8.6924524217       38.5992833343       14.7931107841  MEMB      115             0.0000000000
     12728       115  POPE      H3S             9.9971859721       39.9069249614       14.9800776557  MEMB      115             0.0000000000
     12729       115  POPE      C24             8.6061319383       40.0373897780       13.3457502681  MEMB      115             0.0000000000
     12730       115  POPE      H4R             8.8719259604       41.0775830492       13.0599659938  MEMB      115             0.0000000000
     12731       115  POPE      H4S             7.4996175960       40.0112124424       13.2495120672  MEMB      115             0.0000000000
     12732       115  POPE      C25             9.3243075597       39.1906114940       12.2177836433  MEMB      115             0.0000000000
     12733       115  POPE      H5R             9.2440992570       38.2182762919       12.7492457211  MEMB      115             0.0000000000
     12734       115  POPE      H5S            10.4097904419       39.4235450270       12.1754793940  MEMB      115             0.0000000000
     12735       115  POPE      C26             8.7693007071       39.2592011174       10.7706183477  MEMB      115             0.0000000000
     12736       115  POPE      H6R             9.0430487870       40.2044164904       10.2549141654  MEMB      115             0.0000000000
     12737       115  POPE      H6S             7.6709588318       39.2429570449       10.9370582897  MEMB      115             0.0000000000
     12738       115  POPE      C27             9.1514160744       38.0568972999        9.9603194898  MEMB      115             0.0000000000
     12739       115  POPE      H7R             8.6045419839       38.0188820788        8.9939840252  MEMB      115             0.0000000000
     12740       115  POPE      H7S             8.9241742173       37.1599784984       10.5753148286  MEMB      115             0.0000000000
     12741       115  POPE      C28            10.6771333214       37.9926870921        9.6400809490  MEMB      115             0.0000000000
     12742       115  POPE      H8R            11.3065922090       37.6936255918       10.5053353858  MEMB      115             0.0000000000
     12743       115  POPE      H8S            11.0936168588       38.9892618233        9.3798863058  MEMB      115             0.0000000000
     12744       115  POPE      C29            10.9330860576       37.0506537660        8.5821163045  MEMB      115             0.0000000000
     12745       115  POPE      H91            10.7170847954       36.0044602287        8.8444572169  MEMB      115             0.0000000000
     12746       115  POPE      C210           11.4087847770       37.3934945635        7.3612949757  MEMB      115             0.0000000000
     12747       115  POPE      H101           11.6542673815       36.5824922018        6.6598584135  MEMB      115             0.0000000000
     12748       115  POPE      C211           11.7354869633       38.7589889947        6.7480200680  MEMB      115             0.0000000000
     12749       115  POPE      H11R           12.7880172997       39.1060596793        6.8257550072  MEMB      115             0.0000000000
     12750       115  POPE      H11S           11.0209009171       39.4352934727        7.2640624463  MEMB      115             0.0000000000
     12751       115  POPE      C212           11.5008815783       38.8588479075        5.2231556789  MEMB      115             0.0000000000
     12752       115  POPE      H12R           10.4650236851       38.5985120935        4.9173047182  MEMB      115             0.0000000000
     12753       115  POPE      H12S           12.0674803710       37.9980458199        4.8080569554  MEMB      115             0.0000000000
     12754       115  POPE      C213           12.0609324306       40.0663050935        4.4893456387  MEMB      115             0.0000000000
     12755       115  POPE      H13R           13.0742422237       40.2745740751        4.8944984790  MEMB      115             0.0000000000
     12756       115  POPE      H13S           11.4486496267       40.9321556842        4.8206071606  MEMB      115             0.0000000000
     12757       115  POPE      C214           12.1650178988       39.9442234331        2.9786494948  MEMB      115             0.0000000000
     12758       115  POPE      H14R           12.8713531419       39.1166731849        2.7537672826  MEMB      115             0.0000000000
     12759       115  POPE      H14S           12.5762295627       40.8790939532        2.5413366096  MEMB      115             0.0000000000
     12760       115  POPE      C215           10.8898582651       39.6038124362        2.2359492652  MEMB      115             0.0000000000
     12761       115  POPE      H15R           10.0322260979       40.2001824438        2.6142743163  MEMB      115             0.0000000000
     12762       115  POPE      H15S           10.5981690435       38.5418378396        2.3824015250  MEMB      115             0.0000000000
     12763       115  POPE      C216           10.8616292215       39.7918953402        0.7423086960  MEMB      115             0.0000000000
     12764       115  POPE      H16R           11.5268976501       39.1563025937        0.1196042620  MEMB      115             0.0000000000
     12765       115  POPE      H16S           11.1280654799       40.8516656299        0.5417608312  MEMB      115             0.0000000000
     12766       115  POPE      C217            9.4675875745       39.4723515131        0.1961397075  MEMB      115             0.0000000000
     12767       115  POPE      H17R            8.9857605590       38.7416240614        0.8803919500  MEMB      115             0.0000000000
     12768       115  POPE      H17S            9.6364254995       39.0317187052       -0.8096718396  MEMB      115             0.0000000000
     12769       115  POPE      C218            8.6569016540       40.7611476025       -0.0045066741  MEMB      115             0.0000000000
     12770       115  POPE      H18R            8.3416214198       41.2927913819        0.9186798299  MEMB      115             0.0000000000
     12771       115  POPE      H18S            7.7337838607       40.6593901260       -0.6142780575  MEMB      115             0.0000000000
     12772       115  POPE      H18T            9.1797911674       41.5095414439       -0.6376055884  MEMB      115             0.0000000000
     12773       115  POPE      C33            14.3466354408       40.0400458864       13.5808261530  MEMB      115             0.0000000000
     12774       115  POPE      H3X            14.3361516059       38.9528652220       13.3522452185  MEMB      115             0.0000000000
     12775       115  POPE      H3Y            14.6857591742       40.1509923820       14.6329701891  MEMB      115             0.0000000000
     12776       115  POPE      C34            15.3849304506       40.7227493505       12.6634078837  MEMB      115             0.0000000000
     12777       115  POPE      H4X            16.4170089623       40.6259133437       13.0631049337  MEMB      115             0.0000000000
     12778       115  POPE      H4Y            15.0860668963       41.7621040273       12.4089605991  MEMB      115             0.0000000000
     12779       115  POPE      C35            15.2448180018       40.1005804142       11.2509498582  MEMB      115             0.0000000000
     12780       115  POPE      H5X            14.2069116279       39.8639525027       10.9330213715  MEMB      115             0.0000000000
     12781       115  POPE      H5Y            15.6106553137       39.0534610179       11.3143949712  MEMB      115             0.0000000000
     12782       115  POPE      C36            15.9724367965       41.0167864129       10.2203408834  MEMB      115             0.0000000000
     12783       115  POPE      H6X            17.0685045973       41.0344260133       10.4010197789  MEMB      115             0.0000000000
     12784       115  POPE      H6Y            15.6652794364       42.0781519678       10.3364364850  MEMB      115             0.0000000000
     12785       115  POPE      C37            15.7476963591       40.5725342685        8.7710668533  MEMB      115             0.0000000000
     12786       115  POPE      H7X            16.5195268711       41.1404849844        8.2089011092  MEMB      115             0.0000000000
     12787       115  POPE      H7Y            14.6836692977       40.7943406336        8.5409164627  MEMB      115             0.0000000000
     12788       115  POPE      C38            15.8899054213       39.0620954499        8.4055932858  MEMB      115             0.0000000000
     12789       115  POPE      H8X            15.0214870553       38.5410136329        8.8623693948  MEMB      115             0.0000000000
     12790       115  POPE      H8Y            16.8935157601       38.7739369725        8.7851348161  MEMB      115             0.0000000000
     12791       115  POPE      C39            15.9479380541       38.8774319897        6.9158295732  MEMB      115             0.0000000000
     12792       115  POPE      H9X            16.5677423797       39.6710420912        6.4464183025  MEMB      115             0.0000000000
     12793       115  POPE      H9Y            14.8952775328       39.0824496381        6.6256658614  MEMB      115             0.0000000000
     12794       115  POPE      C310           16.5544140417       37.4931560585        6.4093507728  MEMB      115             0.0000000000
     12795       115  POPE      H10X           15.8830062212       36.6769109045        6.7518069179  MEMB      115             0.0000000000
     12796       115  POPE      H10Y           17.5454096966       37.3299714632        6.8843457712  MEMB      115             0.0000000000
     12797       115  POPE      C311           16.7942752522       37.4146547831        4.8948122685  MEMB      115             0.0000000000
     12798       115  POPE      H11X           17.3661966750       36.4749852375        4.7390959197  MEMB      115             0.0000000000
     12799       115  POPE      H11Y           17.3340270805       38.3040498761        4.5049852349  MEMB      115             0.0000000000
     12800       115  POPE      C312           15.3969434877       37.4147832687        4.1417661810  MEMB      115             0.0000000000
     12801       115  POPE      H12X           15.0229432943       38.4470659711        4.3115836473  MEMB      115             0.0000000000
     12802       115  POPE      H12Y           14.8212148466       36.5895514768        4.6127764736  MEMB      115             0.0000000000
     12803       115  POPE      C313           15.5168282362       37.0786084964        2.6874404660  MEMB      115             0.0000000000
     12804       115  POPE      H13X           14.6032342626       36.5793482958        2.2996187092  MEMB      115             0.0000000000
     12805       115  POPE      H13Y           16.3705073700       36.3839187913        2.5359192446  MEMB      115             0.0000000000
     12806       115  POPE      C314           15.8075173129       38.3411098866        1.7989253417  MEMB      115             0.0000000000
     12807       115  POPE      H14X           16.8005573456       38.7653433942        2.0601121122  MEMB      115             0.0000000000
     12808       115  POPE      H14Y           15.1080965124       39.1575964217        2.0790709409  MEMB      115             0.0000000000
     12809       115  POPE      C315           15.7430507888       38.0478966345        0.3052134455  MEMB      115             0.0000000000
     12810       115  POPE      H15X           16.0043971716       38.9819554789       -0.2365913698  MEMB      115             0.0000000000
     12811       115  POPE      H15Y           14.6673703930       37.9014035983        0.0690521494  MEMB      115             0.0000000000
     12812       115  POPE      C316           16.6112001474       36.9639404474       -0.2609207281  MEMB      115             0.0000000000
     12813       115  POPE      H16X           17.6483863272       37.3567943870       -0.3259724373  MEMB      115             0.0000000000
     12814       115  POPE      H16Y           16.2370149188       36.5586261164       -1.2252987262  MEMB      115             0.0000000000
     12815       115  POPE      H16Z           16.6719111044       36.1126830582        0.4504143068  MEMB      115             0.0000000000
     12816       116  POPC      N              11.4767922090      -44.0380386875       20.5598933382  MEMB      116             0.0000000000
     12817       116  POPC      C12            12.7640293439      -44.8620013435       20.7939214049  MEMB      116             0.0000000000
     12818       116  POPC      H12A           12.7589762338      -45.3303047071       21.7670947699  MEMB      116             0.0000000000
     12819       116  POPC      H12B           13.5856171493      -44.1712270087       20.6746555098  MEMB      116             0.0000000000
     12820       116  POPC      C13            10.2378968733      -44.9428008918       20.4961375462  MEMB      116             0.0000000000
     12821       116  POPC      H13A           10.0344058706      -45.3035103494       21.4935743982  MEMB      116             0.0000000000
     12822       116  POPC      H13B            9.5035521541      -44.2670303611       20.0832552019  MEMB      116             0.0000000000
     12823       116  POPC      H13C           10.3677494656      -45.7931045241       19.8430510528  MEMB      116             0.0000000000
     12824       116  POPC      C14            11.2087848824      -43.1092040740       21.7623291318  MEMB      116             0.0000000000
     12825       116  POPC      H14A           11.9889102492      -42.3677133751       21.6729093750  MEMB      116             0.0000000000
     12826       116  POPC      H14B           10.2625654622      -42.6266260103       21.5669141461  MEMB      116             0.0000000000
     12827       116  POPC      H14C           11.1656250619      -43.6121956034       22.7170735129  MEMB      116             0.0000000000
     12828       116  POPC      C15            11.6613745741      -43.2550967605       19.2906097658  MEMB      116             0.0000000000
     12829       116  POPC      H15A           11.9527655973      -43.8663719248       18.4492811115  MEMB      116             0.0000000000
     12830       116  POPC      H15B           12.2704845211      -42.3741583171       19.4296511286  MEMB      116             0.0000000000
     12831       116  POPC      H15C           10.7380069421      -42.7519305875       19.0444060446  MEMB      116             0.0000000000
     12832       116  POPC      C11            13.0707847326      -45.9818093144       19.7139855310  MEMB      116             0.0000000000
     12833       116  POPC      H11A           12.5258664752      -46.8974942343       20.0284793240  MEMB      116             0.0000000000
     12834       116  POPC      H11B           14.1435940365      -46.2448231943       19.8332535283  MEMB      116             0.0000000000
     12835       116  POPC      P              13.6843587343      -45.8112420670       17.2272275418  MEMB      116             0.0000000000
     12836       116  POPC      O13            14.8866339642      -45.1460339387       17.7643641643  MEMB      116             0.0000000000
     12837       116  POPC      O14            13.0597731179      -45.2201177034       16.0026694557  MEMB      116             0.0000000000
     12838       116  POPC      O12            12.5452694622      -45.7811407779       18.3676737223  MEMB      116             0.0000000000
     12839       116  POPC      O11            13.9769924007      -47.3377112788       17.0211883949  MEMB      116             0.0000000000
     12840       116  POPC      C1             12.9709573540      -48.3244986126       16.7413589932  MEMB      116             0.0000000000
     12841       116  POPC      HA             11.9504561178      -47.8964528441       16.6429965979  MEMB      116             0.0000000000
     12842       116  POPC      HB             12.9516361830      -48.9992828778       17.6237500129  MEMB      116             0.0000000000
     12843       116  POPC      C2             13.1096958863      -49.1756910631       15.4775521285  MEMB      116             0.0000000000
     12844       116  POPC      HS             14.0019484213      -49.8239105280       15.6117824034  MEMB      116             0.0000000000
     12845       116  POPC      O21            13.3461070931      -48.2792377431       14.3804272663  MEMB      116             0.0000000000
     12846       116  POPC      C21            14.5958571756      -47.9254091915       14.0614804027  MEMB      116             0.0000000000
     12847       116  POPC      O22            15.5488178345      -48.3765648813       14.6287961385  MEMB      116             0.0000000000
     12848       116  POPC      C22            14.6045600831      -46.9976079454       12.9003908914  MEMB      116             0.0000000000
     12849       116  POPC      H2R            15.6086103277      -46.8443071207       12.4501658299  MEMB      116             0.0000000000
     12850       116  POPC      H2S            14.1522019240      -46.0363199349       13.2253807244  MEMB      116             0.0000000000
     12851       116  POPC      C3             11.8681633139      -49.9526705407       15.1598330268  MEMB      116             0.0000000000
     12852       116  POPC      HX             11.6744419853      -50.4875906106       16.1141146813  MEMB      116             0.0000000000
     12853       116  POPC      HY             12.0223938308      -50.6764176993       14.3311449508  MEMB      116             0.0000000000
     12854       116  POPC      O31            10.7561938095      -49.0578565492       14.8570474505  MEMB      116             0.0000000000
     12855       116  POPC      C31             9.9658808138      -49.3127183290       13.8741738825  MEMB      116             0.0000000000
     12856       116  POPC      O32             9.9462648891      -50.2074495276       13.0919015989  MEMB      116             0.0000000000
     12857       116  POPC      C32             8.9159903423      -48.1798819891       13.8508114193  MEMB      116             0.0000000000
     12858       116  POPC      H2X             8.7081805610      -47.6879391717       14.8250434186  MEMB      116             0.0000000000
     12859       116  POPC      H2Y             7.9021944410      -48.5835532342       13.6420324157  MEMB      116             0.0000000000
     12860       116  POPC      C23            13.6516090207      -47.4058911873       11.6864440321  MEMB      116             0.0000000000
     12861       116  POPC      H3R            13.4889261703      -46.6319689499       10.9061237213  MEMB      116             0.0000000000
     12862       116  POPC      H3S            12.6054024350      -47.5471339285       12.0325991655  MEMB      116             0.0000000000
     12863       116  POPC      C24            14.0532983566      -48.7635033430       11.0592366612  MEMB      116             0.0000000000
     12864       116  POPC      H4R            14.2076235879      -49.6005463177       11.7732841804  MEMB      116             0.0000000000
     12865       116  POPC      H4S            15.0688895978      -48.5966118610       10.6408553931  MEMB      116             0.0000000000
     12866       116  POPC      C25            13.0496657007      -49.1521976837        9.9550361879  MEMB      116             0.0000000000
     12867       116  POPC      H5R            12.8185697468      -48.2353167989        9.3717314076  MEMB      116             0.0000000000
     12868       116  POPC      H5S            12.0752364055      -49.3932278332       10.4311808533  MEMB      116             0.0000000000
     12869       116  POPC      C26            13.2756365135      -50.4030560792        9.0588820093  MEMB      116             0.0000000000
     12870       116  POPC      H6R            12.3673591406      -50.6602406627        8.4730413513  MEMB      116             0.0000000000
     12871       116  POPC      H6S            13.4069833234      -51.2808423009        9.7271340703  MEMB      116             0.0000000000
     12872       116  POPC      C27            14.4413783633      -50.4003841539        8.0488457758  MEMB      116             0.0000000000
     12873       116  POPC      H7R            14.2491960414      -51.1317875481        7.2349435977  MEMB      116             0.0000000000
     12874       116  POPC      H7S            15.4188221900      -50.4716591317        8.5721473379  MEMB      116             0.0000000000
     12875       116  POPC      C28            14.4585458340      -49.0152153569        7.3069692463  MEMB      116             0.0000000000
     12876       116  POPC      H8R            15.3323458416      -49.2865035006        6.6767334823  MEMB      116             0.0000000000
     12877       116  POPC      H8S            15.0182212917      -48.2760764970        7.9191444928  MEMB      116             0.0000000000
     12878       116  POPC      C29            13.2867069067      -48.4689251506        6.5027707818  MEMB      116             0.0000000000
     12879       116  POPC      H91            12.3704320369      -48.3940264193        7.1067830720  MEMB      116             0.0000000000
     12880       116  POPC      C210           13.2797520602      -48.1890582054        5.1907651768  MEMB      116             0.0000000000
     12881       116  POPC      H101           12.3188503061      -47.9110076359        4.7332111939  MEMB      116             0.0000000000
     12882       116  POPC      C211           14.3903322726      -48.3854308057        4.1639713674  MEMB      116             0.0000000000
     12883       116  POPC      H11R           15.3921287810      -48.0510281686        4.5087887487  MEMB      116             0.0000000000
     12884       116  POPC      H11S           14.2758835618      -47.6396573073        3.3484681050  MEMB      116             0.0000000000
     12885       116  POPC      C212           14.7370503379      -49.8766032098        3.7435591139  MEMB      116             0.0000000000
     12886       116  POPC      H12R           14.6361804892      -50.6056987319        4.5757640730  MEMB      116             0.0000000000
     12887       116  POPC      H12S           15.8282332605      -49.9485936481        3.5474499807  MEMB      116             0.0000000000
     12888       116  POPC      C213           13.9716629693      -50.4543942208        2.5065175528  MEMB      116             0.0000000000
     12889       116  POPC      H13R           12.8762824921      -50.3428296794        2.6548944600  MEMB      116             0.0000000000
     12890       116  POPC      H13S           14.3211761360      -51.4964899789        2.3446592176  MEMB      116             0.0000000000
     12891       116  POPC      C214           14.2077009333      -49.7612788815        1.1401525193  MEMB      116             0.0000000000
     12892       116  POPC      H14R           15.2979392309      -49.6014218067        0.9982121115  MEMB      116             0.0000000000
     12893       116  POPC      H14S           13.7122143934      -48.7679544196        1.0941026497  MEMB      116             0.0000000000
     12894       116  POPC      C215           13.8973445828      -50.7572778710        0.0160958570  MEMB      116             0.0000000000
     12895       116  POPC      H15R           14.7261836436      -51.4196920207       -0.3133798377  MEMB      116             0.0000000000
     12896       116  POPC      H15S           13.7461857552      -50.1321820718       -0.8898442041  MEMB      116             0.0000000000
     12897       116  POPC      C216           12.6273817443      -51.5766332202        0.1692805144  MEMB      116             0.0000000000
     12898       116  POPC      H16R           12.5441701027      -52.0720590701        1.1602139544  MEMB      116             0.0000000000
     12899       116  POPC      H16S           12.6685116907      -52.4265403251       -0.5450640960  MEMB      116             0.0000000000
     12900       116  POPC      C217           11.4022448813      -50.7263247263       -0.0864606918  MEMB      116             0.0000000000
     12901       116  POPC      H17R           11.6502217480      -50.3390770507       -1.0978299442  MEMB      116             0.0000000000
     12902       116  POPC      H17S           11.3802118170      -49.9584765603        0.7161884909  MEMB      116             0.0000000000
     12903       116  POPC      C218           10.0796885301      -51.4265194977       -0.0331117429  MEMB      116             0.0000000000
     12904       116  POPC      H18R            9.1710196031      -50.7981211510       -0.1504034609  MEMB      116             0.0000000000
     12905       116  POPC      H18S            9.8678059100      -51.9481183390        0.9246781243  MEMB      116             0.0000000000
     12906       116  POPC      H18T           10.0295748276      -52.1278980363       -0.8932713209  MEMB      116             0.0000000000
     12907       116  POPC      C33             9.3148562873      -47.0740854242       12.7812708578  MEMB      116             0.0000000000
     12908       116  POPC      H3X             9.5034458813      -47.6795096111       11.8690117466  MEMB      116             0.0000000000
     12909       116  POPC      H3Y            10.3001202052      -46.6723832854       13.1009763007  MEMB      116             0.0000000000
     12910       116  POPC      C34             8.3086093056      -45.9587148666       12.4393067128  MEMB      116             0.0000000000
     12911       116  POPC      H4X             8.2622546340      -45.2317190572       13.2781448319  MEMB      116             0.0000000000
     12912       116  POPC      H4Y             7.2602703197      -46.3136715954       12.3428097910  MEMB      116             0.0000000000
     12913       116  POPC      C35             8.5701280779      -44.9471656225       11.1769817974  MEMB      116             0.0000000000
     12914       116  POPC      H5X             9.4941521030      -44.4466737272       11.5375483355  MEMB      116             0.0000000000
     12915       116  POPC      H5Y             7.8012674738      -44.1457334637       11.1472940725  MEMB      116             0.0000000000
     12916       116  POPC      C36             8.8880858271      -45.6034242818        9.8605658688  MEMB      116             0.0000000000
     12917       116  POPC      H6X             8.6162728463      -44.7969419214        9.1464048333  MEMB      116             0.0000000000
     12918       116  POPC      H6Y             8.3093145462      -46.5453523281        9.7504918453  MEMB      116             0.0000000000
     12919       116  POPC      C37            10.3801439078      -45.8563791836        9.7020264617  MEMB      116             0.0000000000
     12920       116  POPC      H7X            10.5464941605      -46.9122274744       10.0050658484  MEMB      116             0.0000000000
     12921       116  POPC      H7Y            10.9704185650      -45.1170039634       10.2844537677  MEMB      116             0.0000000000
     12922       116  POPC      C38            10.9388655733      -45.7797798479        8.2530635441  MEMB      116             0.0000000000
     12923       116  POPC      H8X            10.5447605375      -46.6194979707        7.6416098345  MEMB      116             0.0000000000
     12924       116  POPC      H8Y            12.0175774405      -46.0333952485        8.3329444467  MEMB      116             0.0000000000
     12925       116  POPC      C39            10.9052328496      -44.3972152124        7.5707835869  MEMB      116             0.0000000000
     12926       116  POPC      H9X            11.4268056579      -43.6424879509        8.1974169045  MEMB      116             0.0000000000
     12927       116  POPC      H9Y             9.8744550789      -44.0057432139        7.4345201806  MEMB      116             0.0000000000
     12928       116  POPC      C310           11.5491848735      -44.4977886734        6.1952958101  MEMB      116             0.0000000000
     12929       116  POPC      H10X           12.4017978870      -45.2071874172        6.2595275178  MEMB      116             0.0000000000
     12930       116  POPC      H10Y           11.9718911409      -43.5018723049        5.9427271971  MEMB      116             0.0000000000
     12931       116  POPC      C311           10.6409135334      -44.8863352659        5.0303231811  MEMB      116             0.0000000000
     12932       116  POPC      H11X           10.0669660364      -43.9824442523        4.7338664071  MEMB      116             0.0000000000
     12933       116  POPC      H11Y            9.9576870313      -45.7279955437        5.2734908807  MEMB      116             0.0000000000
     12934       116  POPC      C312           11.3920557908      -45.2733895970        3.6884414448  MEMB      116             0.0000000000
     12935       116  POPC      H12X           10.7718105833      -46.0079699660        3.1316568307  MEMB      116             0.0000000000
     12936       116  POPC      H12Y           12.3493675069      -45.7414489049        4.0027591901  MEMB      116             0.0000000000
     12937       116  POPC      C313           11.7335937021      -44.0264154390        2.8672617956  MEMB      116             0.0000000000
     12938       116  POPC      H13X           12.4225699558      -43.3796625872        3.4515077249  MEMB      116             0.0000000000
     12939       116  POPC      H13Y           10.7871404675      -43.4707841871        2.6945730597  MEMB      116             0.0000000000
     12940       116  POPC      C314           12.4876805068      -44.3201396840        1.5077957217  MEMB      116             0.0000000000
     12941       116  POPC      H14X           12.5926589051      -43.3188041332        1.0380851334  MEMB      116             0.0000000000
     12942       116  POPC      H14Y           11.6630782265      -44.8304198493        0.9656080255  MEMB      116             0.0000000000
     12943       116  POPC      C315           13.6849183500      -45.2179239412        1.6699737298  MEMB      116             0.0000000000
     12944       116  POPC      H15X           13.4252950216      -46.1770622887        2.1669356842  MEMB      116             0.0000000000
     12945       116  POPC      H15Y           14.3907397382      -44.7166002187        2.3662593514  MEMB      116             0.0000000000
     12946       116  POPC      C316           14.2549993275      -45.6219270177        0.3474502922  MEMB      116             0.0000000000
     12947       116  POPC      H16X           14.6560804298      -44.7160489967       -0.1553813340  MEMB      116             0.0000000000
     12948       116  POPC      H16Y           13.5050839800      -45.9946209315       -0.3826512539  MEMB      116             0.0000000000
     12949       116  POPC      H16Z           15.0362127460      -46.4076257892        0.4293300755  MEMB      116             0.0000000000
     12950       117  POPE      N             -55.5871934991       13.6612564265       19.9835386576  MEMB      117             0.0000000000
     12951       117  POPE      HN1           -54.7823205676       14.0350164387       19.4412445704  MEMB      117             0.0000000000
     12952       117  POPE      HN2           -56.2493932861       13.4322689966       19.2149970684  MEMB      117             0.0000000000
     12953       117  POPE      HN3           -56.0040076151       14.2700568889       20.7164970745  MEMB      117             0.0000000000
     12954       117  POPE      C12           -55.2466317443       12.3482325980       20.6167751935  MEMB      117             0.0000000000
     12955       117  POPE      H12A          -56.2130013215       11.8008608608       20.5878795187  MEMB      117             0.0000000000
     12956       117  POPE      H12B          -54.8554607547       12.4386690567       21.6526939229  MEMB      117             0.0000000000
     12957       117  POPE      C11           -54.1430031025       11.4294822311       19.8915029052  MEMB      117             0.0000000000
     12958       117  POPE      H11A          -54.6127259757       10.9932273151       18.9841093798  MEMB      117             0.0000000000
     12959       117  POPE      H11B          -53.9846729564       10.6200806607       20.6358964669  MEMB      117             0.0000000000
     12960       117  POPE      P             -52.5067297146       12.6370469949       18.2617745393  MEMB      117             0.0000000000
     12961       117  POPE      O13           -51.0674548767       12.8382216982       18.3344638218  MEMB      117             0.0000000000
     12962       117  POPE      O14           -53.2842229085       13.8514174727       17.9211740638  MEMB      117             0.0000000000
     12963       117  POPE      O11           -53.0282582557       11.4867143106       17.3193687653  MEMB      117             0.0000000000
     12964       117  POPE      O12           -52.9341610995       12.1636050639       19.6714020506  MEMB      117             0.0000000000
     12965       117  POPE      C1            -52.1513275372       10.5660246450       16.6635265725  MEMB      117             0.0000000000
     12966       117  POPE      HA            -52.6290406646        9.5697498781       16.5471317899  MEMB      117             0.0000000000
     12967       117  POPE      HB            -51.2355732113       10.4089543719       17.2726607147  MEMB      117             0.0000000000
     12968       117  POPE      C2            -51.9011546971       11.1287498757       15.2249015271  MEMB      117             0.0000000000
     12969       117  POPE      HS            -51.2161246541       10.4357136044       14.6912765667  MEMB      117             0.0000000000
     12970       117  POPE      O21           -51.2701274777       12.4356552982       15.1492661632  MEMB      117             0.0000000000
     12971       117  POPE      C21           -49.9334717908       12.5228416123       14.8343580403  MEMB      117             0.0000000000
     12972       117  POPE      O22           -49.2274678263       11.5775010667       14.5220631951  MEMB      117             0.0000000000
     12973       117  POPE      C22           -49.4997051659       14.0263282868       15.0869506921  MEMB      117             0.0000000000
     12974       117  POPE      H2R           -48.4510909952       13.9634586474       15.4485818922  MEMB      117             0.0000000000
     12975       117  POPE      H2S           -50.2134343241       14.4250824178       15.8392184908  MEMB      117             0.0000000000
     12976       117  POPE      C3            -53.2100400909       11.2259393681       14.3725423879  MEMB      117             0.0000000000
     12977       117  POPE      HX            -53.6770056274       12.1607363521       14.7499264917  MEMB      117             0.0000000000
     12978       117  POPE      HY            -54.0442958912       10.4927756722       14.4009884729  MEMB      117             0.0000000000
     12979       117  POPE      O31           -52.9789262420       11.5900335569       12.9905969227  MEMB      117             0.0000000000
     12980       117  POPE      C31           -52.7556424488       10.5854419159       12.2055668584  MEMB      117             0.0000000000
     12981       117  POPE      O32           -52.4214656024        9.4444156932       12.5686506402  MEMB      117             0.0000000000
     12982       117  POPE      C32           -52.7106416888       11.0472239892       10.7623402482  MEMB      117             0.0000000000
     12983       117  POPE      H2X           -52.0757428073       10.4364173625       10.0854799519  MEMB      117             0.0000000000
     12984       117  POPE      H2Y           -52.2738767320       12.0686535642       10.7777987294  MEMB      117             0.0000000000
     12985       117  POPE      C23           -49.5579371741       14.9342692989       13.8568908307  MEMB      117             0.0000000000
     12986       117  POPE      H3R           -48.8834804007       14.5087500929       13.0833516258  MEMB      117             0.0000000000
     12987       117  POPE      H3S           -49.1510813653       15.9448335680       14.0749476202  MEMB      117             0.0000000000
     12988       117  POPE      C24           -50.9525434148       15.4830408704       13.3274324034  MEMB      117             0.0000000000
     12989       117  POPE      H4R           -51.4477542160       16.0203015010       14.1643547682  MEMB      117             0.0000000000
     12990       117  POPE      H4S           -51.6002309719       14.6778333189       12.9194339218  MEMB      117             0.0000000000
     12991       117  POPE      C25           -50.7033167003       16.4662027014       12.1916766739  MEMB      117             0.0000000000
     12992       117  POPE      H5R           -49.7112393241       16.3386629750       11.7081096493  MEMB      117             0.0000000000
     12993       117  POPE      H5S           -50.5694316396       17.4781466836       12.6302708340  MEMB      117             0.0000000000
     12994       117  POPE      C26           -51.7904710656       16.4984877729       11.0790632647  MEMB      117             0.0000000000
     12995       117  POPE      H6R           -51.5155933893       17.4681195166       10.6115408578  MEMB      117             0.0000000000
     12996       117  POPE      H6S           -52.7708776976       16.5715153277       11.5965486093  MEMB      117             0.0000000000
     12997       117  POPE      C27           -51.7188805438       15.3238304150       10.0866797897  MEMB      117             0.0000000000
     12998       117  POPE      H7R           -52.0749293556       14.4173883723       10.6213881320  MEMB      117             0.0000000000
     12999       117  POPE      H7S           -50.7168750068       15.1724199212        9.6312882362  MEMB      117             0.0000000000
     13000       117  POPE      C28           -52.6591565224       15.5582553134        8.8841740531  MEMB      117             0.0000000000
     13001       117  POPE      H8R           -53.6649031195       15.6247164797        9.3514820205  MEMB      117             0.0000000000
     13002       117  POPE      H8S           -52.4458869177       14.6612428900        8.2643305191  MEMB      117             0.0000000000
     13003       117  POPE      C29           -52.2662618935       16.8336317386        8.1236319640  MEMB      117             0.0000000000
     13004       117  POPE      H91           -51.1969971988       17.0818881340        8.1946360515  MEMB      117             0.0000000000
     13005       117  POPE      C210          -53.0254172849       17.5462451235        7.2943096769  MEMB      117             0.0000000000
     13006       117  POPE      H101          -52.6371034426       18.3495429045        6.6509392960  MEMB      117             0.0000000000
     13007       117  POPE      C211          -54.4666566224       17.2115000008        7.0143214995  MEMB      117             0.0000000000
     13008       117  POPE      H11R          -55.0303116567       18.1014889876        7.3672143981  MEMB      117             0.0000000000
     13009       117  POPE      H11S          -54.8822826669       16.3628850508        7.5986404011  MEMB      117             0.0000000000
     13010       117  POPE      C212          -54.6226300683       16.9418467392        5.5164219964  MEMB      117             0.0000000000
     13011       117  POPE      H12R          -54.1408334082       17.7386972818        4.9104343088  MEMB      117             0.0000000000
     13012       117  POPE      H12S          -55.6859770278       16.9047235309        5.1966781849  MEMB      117             0.0000000000
     13013       117  POPE      C213          -54.0487977041       15.6381221931        5.0649166245  MEMB      117             0.0000000000
     13014       117  POPE      H13R          -52.9418799098       15.6296969475        5.1596935376  MEMB      117             0.0000000000
     13015       117  POPE      H13S          -54.2668952335       15.4802764409        3.9870304878  MEMB      117             0.0000000000
     13016       117  POPE      C214          -54.3976351252       14.3100211037        5.8153326889  MEMB      117             0.0000000000
     13017       117  POPE      H14R          -55.4953592498       14.1766518386        5.7079294227  MEMB      117             0.0000000000
     13018       117  POPE      H14S          -54.2968533737       14.5988194018        6.8833954390  MEMB      117             0.0000000000
     13019       117  POPE      C215          -53.7922669445       13.0310668721        5.2701838255  MEMB      117             0.0000000000
     13020       117  POPE      H15R          -53.9738266748       12.2584559067        6.0476345989  MEMB      117             0.0000000000
     13021       117  POPE      H15S          -52.6882729254       13.1546944165        5.2548730516  MEMB      117             0.0000000000
     13022       117  POPE      C216          -54.2548926842       12.4592881741        3.9746541962  MEMB      117             0.0000000000
     13023       117  POPE      H16R          -53.8057995131       13.1217520363        3.2040845062  MEMB      117             0.0000000000
     13024       117  POPE      H16S          -55.3560631984       12.4778066785        3.8283613142  MEMB      117             0.0000000000
     13025       117  POPE      C217          -53.7491851758       11.0160209767        3.6088693511  MEMB      117             0.0000000000
     13026       117  POPE      H17R          -54.2543218260       10.2924053229        4.2838051661  MEMB      117             0.0000000000
     13027       117  POPE      H17S          -52.6451477803       10.9325434959        3.7008139253  MEMB      117             0.0000000000
     13028       117  POPE      C218          -54.1666002706       10.5099810382        2.1976557021  MEMB      117             0.0000000000
     13029       117  POPE      H18R          -55.2604538217       10.3212416960        2.1509328586  MEMB      117             0.0000000000
     13030       117  POPE      H18S          -53.7396842220        9.4860028854        2.1382226966  MEMB      117             0.0000000000
     13031       117  POPE      H18T          -53.8401790318       11.1752479233        1.3698929562  MEMB      117             0.0000000000
     13032       117  POPE      C33           -54.1977221025       11.1557129408       10.2568350110  MEMB      117             0.0000000000
     13033       117  POPE      H3X           -54.2286625579       11.6099570538        9.2434121433  MEMB      117             0.0000000000
     13034       117  POPE      H3Y           -54.7971643493       11.7373732367       10.9894068461  MEMB      117             0.0000000000
     13035       117  POPE      C34           -54.9520891858        9.7413519392       10.2621099680  MEMB      117             0.0000000000
     13036       117  POPE      H4X           -55.1031080567        9.4904080773       11.3338105661  MEMB      117             0.0000000000
     13037       117  POPE      H4Y           -54.2955990820        8.9334412918        9.8740093054  MEMB      117             0.0000000000
     13038       117  POPE      C35           -56.3325017483        9.6623380386        9.5235256602  MEMB      117             0.0000000000
     13039       117  POPE      H5X           -57.0511726074       10.3006386813       10.0806662626  MEMB      117             0.0000000000
     13040       117  POPE      H5Y           -56.7104720120        8.6336130708        9.7056920521  MEMB      117             0.0000000000
     13041       117  POPE      C36           -56.3695810915       10.0854224999        7.9938093255  MEMB      117             0.0000000000
     13042       117  POPE      H6X           -55.6988182271        9.4146869934        7.4154386780  MEMB      117             0.0000000000
     13043       117  POPE      H6Y           -56.1825994129       11.1470944619        7.7250872927  MEMB      117             0.0000000000
     13044       117  POPE      C37           -57.7210571472        9.5628994133        7.3546965623  MEMB      117             0.0000000000
     13045       117  POPE      H7X           -58.5860689393       10.0046011675        7.8941172129  MEMB      117             0.0000000000
     13046       117  POPE      H7Y           -57.7568388576        8.4752833814        7.5785985733  MEMB      117             0.0000000000
     13047       117  POPE      C38           -57.6607454384        9.5113594768        5.8371906961  MEMB      117             0.0000000000
     13048       117  POPE      H8X           -58.4383537388        8.7934651376        5.4991467886  MEMB      117             0.0000000000
     13049       117  POPE      H8Y           -56.7308507625        9.0510022960        5.4400903079  MEMB      117             0.0000000000
     13050       117  POPE      C39           -57.9398656284       10.8645238842        5.2426209288  MEMB      117             0.0000000000
     13051       117  POPE      H9X           -56.9987805392       11.4352621960        5.3940721108  MEMB      117             0.0000000000
     13052       117  POPE      H9Y           -58.7763670131       11.3373324295        5.8003291420  MEMB      117             0.0000000000
     13053       117  POPE      C310          -58.2375083425       10.7991649546        3.7321372352  MEMB      117             0.0000000000
     13054       117  POPE      H10X          -59.2493439627       10.3502484775        3.6373573693  MEMB      117             0.0000000000
     13055       117  POPE      H10Y          -57.3998684887       10.2661173237        3.2335987472  MEMB      117             0.0000000000
     13056       117  POPE      C311          -58.3698439711       12.2205668143        3.0612771764  MEMB      117             0.0000000000
     13057       117  POPE      H11X          -57.5539500114       12.7659810231        3.5820094013  MEMB      117             0.0000000000
     13058       117  POPE      H11Y          -59.3457336421       12.6831924552        3.3219254703  MEMB      117             0.0000000000
     13059       117  POPE      C312          -57.9183733508       12.1712317469        1.5774868974  MEMB      117             0.0000000000
     13060       117  POPE      H12X          -56.8697670437       11.8098644999        1.5129897927  MEMB      117             0.0000000000
     13061       117  POPE      H12Y          -58.0678080927       13.1403076067        1.0551049425  MEMB      117             0.0000000000
     13062       117  POPE      C313          -58.6935487451       11.1795955557        0.6209162882  MEMB      117             0.0000000000
     13063       117  POPE      H13X          -59.7086417895       11.6310077671        0.6324943797  MEMB      117             0.0000000000
     13064       117  POPE      H13Y          -58.7965821171       10.1966889409        1.1284601872  MEMB      117             0.0000000000
     13065       117  POPE      C314          -58.1684949169       10.9316671863       -0.7669233482  MEMB      117             0.0000000000
     13066       117  POPE      H14X          -58.3971889876       11.7865595050       -1.4386231619  MEMB      117             0.0000000000
     13067       117  POPE      H14Y          -58.6847239665       10.0743963159       -1.2495370202  MEMB      117             0.0000000000
     13068       117  POPE      C315          -56.7355672894       10.4294334262       -0.8806380683  MEMB      117             0.0000000000
     13069       117  POPE      H15X          -56.0428682844       11.0729126046       -0.2971785205  MEMB      117             0.0000000000
     13070       117  POPE      H15Y          -56.4230606815       10.4822123789       -1.9454728270  MEMB      117             0.0000000000
     13071       117  POPE      C316          -56.4275290452        9.0905128253       -0.3010012502  MEMB      117             0.0000000000
     13072       117  POPE      H16X          -55.3405891705        9.0549843034       -0.0738011389  MEMB      117             0.0000000000
     13073       117  POPE      H16Y          -56.6343038185        8.2846828769       -1.0373476250  MEMB      117             0.0000000000
     13074       117  POPE      H16Z          -56.9080974541        8.8619194683        0.6742521157  MEMB      117             0.0000000000
     13075       118  POPE      N             -33.7004766451      -27.7009875022       20.2784288056  MEMB      118             0.0000000000
     13076       118  POPE      HN1           -33.4722181811      -28.7137744941       20.2171054116  MEMB      118             0.0000000000
     13077       118  POPE      HN2           -34.5501549319      -27.6457775876       20.8755875972  MEMB      118             0.0000000000
     13078       118  POPE      HN3           -34.0402550616      -27.3001683184       19.3809352340  MEMB      118             0.0000000000
     13079       118  POPE      C12           -32.5545918142      -26.9843682298       21.0214177080  MEMB      118             0.0000000000
     13080       118  POPE      H12A          -31.8577138601      -27.7155090665       21.4841436005  MEMB      118             0.0000000000
     13081       118  POPE      H12B          -32.9465636611      -26.4691126153       21.9242967344  MEMB      118             0.0000000000
     13082       118  POPE      C11           -31.7922762505      -25.9912357613       20.1265410496  MEMB      118             0.0000000000
     13083       118  POPE      H11A          -31.2626203646      -25.2281420490       20.7360275327  MEMB      118             0.0000000000
     13084       118  POPE      H11B          -32.5575144210      -25.3879002219       19.5929515321  MEMB      118             0.0000000000
     13085       118  POPE      P             -30.0806041183      -25.8898696541       18.1366922406  MEMB      118             0.0000000000
     13086       118  POPE      O13           -29.1059678897      -26.7832329836       17.5968533548  MEMB      118             0.0000000000
     13087       118  POPE      O14           -29.7571130791      -24.5654608550       18.6809620517  MEMB      118             0.0000000000
     13088       118  POPE      O11           -31.1106709304      -25.7438685080       16.9852563649  MEMB      118             0.0000000000
     13089       118  POPE      O12           -30.9424016723      -26.6746197061       19.1738484256  MEMB      118             0.0000000000
     13090       118  POPE      C1            -32.1295882417      -26.6539283207       16.6457114102  MEMB      118             0.0000000000
     13091       118  POPE      HA            -32.7148557123      -26.1462893889       15.8494163384  MEMB      118             0.0000000000
     13092       118  POPE      HB            -32.7967328147      -26.8769919459       17.5056425525  MEMB      118             0.0000000000
     13093       118  POPE      C2            -31.6598305893      -27.9504382211       15.8980738363  MEMB      118             0.0000000000
     13094       118  POPE      HS            -31.5044216867      -28.7359304559       16.6682498019  MEMB      118             0.0000000000
     13095       118  POPE      O21           -30.4790012488      -27.6118325157       15.1544979278  MEMB      118             0.0000000000
     13096       118  POPE      C21           -29.5928196469      -28.5109836540       14.8101105754  MEMB      118             0.0000000000
     13097       118  POPE      O22           -29.6295438380      -29.7304774565       15.0794593381  MEMB      118             0.0000000000
     13098       118  POPE      C22           -28.5859625492      -27.7827149496       13.9202529570  MEMB      118             0.0000000000
     13099       118  POPE      H2R           -27.6645619002      -27.7304690744       14.5388095477  MEMB      118             0.0000000000
     13100       118  POPE      H2S           -28.9092493405      -26.7843165147       13.5555513370  MEMB      118             0.0000000000
     13101       118  POPE      C3            -32.7242809313      -28.4773746779       14.8996111914  MEMB      118             0.0000000000
     13102       118  POPE      HX            -33.5659490777      -28.9075792283       15.4834258824  MEMB      118             0.0000000000
     13103       118  POPE      HY            -32.2213157397      -29.3249509298       14.3868135154  MEMB      118             0.0000000000
     13104       118  POPE      O31           -33.1745332363      -27.5220338673       13.9679050671  MEMB      118             0.0000000000
     13105       118  POPE      C31           -33.3055906776      -27.7869752503       12.6963153145  MEMB      118             0.0000000000
     13106       118  POPE      O32           -33.2142333687      -28.8541565561       12.1098130868  MEMB      118             0.0000000000
     13107       118  POPE      C32           -33.6107291498      -26.4346396771       11.9542661759  MEMB      118             0.0000000000
     13108       118  POPE      H2X           -33.7123428976      -25.5867082966       12.6649055931  MEMB      118             0.0000000000
     13109       118  POPE      H2Y           -34.5755347031      -26.5580324262       11.4173814107  MEMB      118             0.0000000000
     13110       118  POPE      C23           -28.2435510228      -28.7290099208       12.7899033836  MEMB      118             0.0000000000
     13111       118  POPE      H3R           -29.2254228978      -29.0964227988       12.4221309832  MEMB      118             0.0000000000
     13112       118  POPE      H3S           -27.7801666402      -29.6812447806       13.1258272802  MEMB      118             0.0000000000
     13113       118  POPE      C24           -27.3603380649      -28.1211036154       11.6899243789  MEMB      118             0.0000000000
     13114       118  POPE      H4R           -26.3662811226      -28.2353649822       12.1727454683  MEMB      118             0.0000000000
     13115       118  POPE      H4S           -27.6688522341      -27.0672948182       11.5207293950  MEMB      118             0.0000000000
     13116       118  POPE      C25           -27.3120011622      -28.9580646109       10.4067223186  MEMB      118             0.0000000000
     13117       118  POPE      H5R           -27.0574592452      -30.0025085052       10.6871971228  MEMB      118             0.0000000000
     13118       118  POPE      H5S           -26.5191334540      -28.4701662899        9.8003916832  MEMB      118             0.0000000000
     13119       118  POPE      C26           -28.6705893981      -29.1069705305        9.6840892359  MEMB      118             0.0000000000
     13120       118  POPE      H6R           -28.9935016950      -28.0749989453        9.4289749604  MEMB      118             0.0000000000
     13121       118  POPE      H6S           -29.4105530810      -29.6861588017       10.2768081358  MEMB      118             0.0000000000
     13122       118  POPE      C27           -28.6142182731      -29.7975260628        8.3336348715  MEMB      118             0.0000000000
     13123       118  POPE      H7R           -27.9365227677      -30.6777047043        8.3519437927  MEMB      118             0.0000000000
     13124       118  POPE      H7S           -28.0465374107      -29.1361396219        7.6447023625  MEMB      118             0.0000000000
     13125       118  POPE      C28           -30.0233897599      -30.0854254088        7.6566856984  MEMB      118             0.0000000000
     13126       118  POPE      H8R           -30.5406999614      -30.8713446326        8.2474844709  MEMB      118             0.0000000000
     13127       118  POPE      H8S           -29.8180960354      -30.5165192634        6.6535246039  MEMB      118             0.0000000000
     13128       118  POPE      C29           -30.9556158336      -28.8410741930        7.4918628694  MEMB      118             0.0000000000
     13129       118  POPE      H91           -31.6345496719      -28.5970429336        8.3222230806  MEMB      118             0.0000000000
     13130       118  POPE      C210          -30.8243427718      -27.9956771417        6.4344131485  MEMB      118             0.0000000000
     13131       118  POPE      H101          -31.5565386749      -27.1908944584        6.2725060013  MEMB      118             0.0000000000
     13132       118  POPE      C211          -29.8397871531      -28.1266620240        5.3163465842  MEMB      118             0.0000000000
     13133       118  POPE      H11R          -29.2209413973      -29.0402565281        5.4455594358  MEMB      118             0.0000000000
     13134       118  POPE      H11S          -29.0565419100      -27.3456483260        5.4205837413  MEMB      118             0.0000000000
     13135       118  POPE      C212          -30.6318859846      -28.1361972492        3.9786012395  MEMB      118             0.0000000000
     13136       118  POPE      H12R          -31.2579499994      -27.2196200253        3.9311562523  MEMB      118             0.0000000000
     13137       118  POPE      H12S          -31.3123113624      -28.9952021407        4.1615021651  MEMB      118             0.0000000000
     13138       118  POPE      C213          -29.8017678901      -28.3250772875        2.6815245744  MEMB      118             0.0000000000
     13139       118  POPE      H13R          -28.9316430210      -28.9540983613        2.9670705263  MEMB      118             0.0000000000
     13140       118  POPE      H13S          -29.2944260234      -27.3651624826        2.4459641247  MEMB      118             0.0000000000
     13141       118  POPE      C214          -30.5456767593      -28.6890777595        1.4140907630  MEMB      118             0.0000000000
     13142       118  POPE      H14R          -30.3983482347      -29.7532574844        1.1310070165  MEMB      118             0.0000000000
     13143       118  POPE      H14S          -29.8781627506      -28.1418050891        0.7146351248  MEMB      118             0.0000000000
     13144       118  POPE      C215          -31.9390885681      -28.1862988523        1.1907726219  MEMB      118             0.0000000000
     13145       118  POPE      H15R          -32.5567870928      -28.5904112141        2.0211125412  MEMB      118             0.0000000000
     13146       118  POPE      H15S          -32.1652057087      -28.5579349257        0.1684829471  MEMB      118             0.0000000000
     13147       118  POPE      C216          -32.1219158878      -26.6893196536        1.1759680571  MEMB      118             0.0000000000
     13148       118  POPE      H16R          -31.9011996465      -26.3290503371        2.2034962335  MEMB      118             0.0000000000
     13149       118  POPE      H16S          -33.2005985070      -26.4819830890        1.0093068431  MEMB      118             0.0000000000
     13150       118  POPE      C217          -31.4469545553      -25.8835790690       -0.0161869669  MEMB      118             0.0000000000
     13151       118  POPE      H17R          -30.3411824654      -25.8383321726        0.0814948827  MEMB      118             0.0000000000
     13152       118  POPE      H17S          -31.8386768137      -24.8500557220        0.0965267625  MEMB      118             0.0000000000
     13153       118  POPE      C218          -31.7636804766      -26.4468185703       -1.3783957444  MEMB      118             0.0000000000
     13154       118  POPE      H18R          -31.7844750382      -27.5367569413       -1.5926913169  MEMB      118             0.0000000000
     13155       118  POPE      H18S          -30.9532709323      -25.9858280717       -1.9825859269  MEMB      118             0.0000000000
     13156       118  POPE      H18T          -32.7431566020      -26.0051322846       -1.6609927637  MEMB      118             0.0000000000
     13157       118  POPE      C33           -32.5850142668      -26.0667088849       10.9284679566  MEMB      118             0.0000000000
     13158       118  POPE      H3X           -32.8994079423      -25.1358925438       10.4097594110  MEMB      118             0.0000000000
     13159       118  POPE      H3Y           -32.5314441559      -26.8551234083       10.1475368652  MEMB      118             0.0000000000
     13160       118  POPE      C34           -31.1607067123      -25.8390546972       11.3926502129  MEMB      118             0.0000000000
     13161       118  POPE      H4X           -30.5153188766      -25.8873703950       10.4896213069  MEMB      118             0.0000000000
     13162       118  POPE      H4Y           -30.8376885716      -26.5849528167       12.1500249429  MEMB      118             0.0000000000
     13163       118  POPE      C35           -30.9581461165      -24.5176778516       12.0930927854  MEMB      118             0.0000000000
     13164       118  POPE      H5X           -29.9764124816      -24.6560764457       12.5944564208  MEMB      118             0.0000000000
     13165       118  POPE      H5Y           -31.7226598460      -24.4339136437       12.8948550897  MEMB      118             0.0000000000
     13166       118  POPE      C36           -30.9397828692      -23.3046443372       11.2234765971  MEMB      118             0.0000000000
     13167       118  POPE      H6X           -31.0042761102      -22.3734222973       11.8259608058  MEMB      118             0.0000000000
     13168       118  POPE      H6Y           -31.8192557922      -23.2712306434       10.5454411790  MEMB      118             0.0000000000
     13169       118  POPE      C37           -29.6814566674      -23.1946860177       10.3178271205  MEMB      118             0.0000000000
     13170       118  POPE      H7X           -29.5481268411      -24.0412745604        9.6108397165  MEMB      118             0.0000000000
     13171       118  POPE      H7Y           -28.8340360002      -23.1906382184       11.0362863192  MEMB      118             0.0000000000
     13172       118  POPE      C38           -29.6582810462      -21.8368219084        9.5708157178  MEMB      118             0.0000000000
     13173       118  POPE      H8X           -29.5916004672      -20.9705230801       10.2632038655  MEMB      118             0.0000000000
     13174       118  POPE      H8Y           -30.5444972474      -21.8114307147        8.9012659636  MEMB      118             0.0000000000
     13175       118  POPE      C39           -28.4338466652      -21.6507379427        8.6939593050  MEMB      118             0.0000000000
     13176       118  POPE      H9X           -27.5093925421      -21.4695056016        9.2829084795  MEMB      118             0.0000000000
     13177       118  POPE      H9Y           -28.5943509636      -20.7639323472        8.0442406075  MEMB      118             0.0000000000
     13178       118  POPE      C310          -28.0274831026      -22.7110112280        7.6356295925  MEMB      118             0.0000000000
     13179       118  POPE      H10X          -27.6794583931      -23.6867220509        8.0371112455  MEMB      118             0.0000000000
     13180       118  POPE      H10Y          -27.1416625261      -22.3208800617        7.0902472618  MEMB      118             0.0000000000
     13181       118  POPE      C311          -29.0336129300      -23.1689065132        6.5776135723  MEMB      118             0.0000000000
     13182       118  POPE      H11X          -29.5553584979      -22.3644046381        6.0164729128  MEMB      118             0.0000000000
     13183       118  POPE      H11Y          -29.8898858087      -23.6357281177        7.1097744404  MEMB      118             0.0000000000
     13184       118  POPE      C312          -28.6527053789      -24.3001145804        5.5958732855  MEMB      118             0.0000000000
     13185       118  POPE      H12X          -29.5206467228      -24.6970268123        5.0271375990  MEMB      118             0.0000000000
     13186       118  POPE      H12Y          -28.2923499612      -25.1634678222        6.1951110548  MEMB      118             0.0000000000
     13187       118  POPE      C313          -27.7543130771      -23.8571684603        4.4736031983  MEMB      118             0.0000000000
     13188       118  POPE      H13X          -26.8174193632      -23.4351300048        4.8960193413  MEMB      118             0.0000000000
     13189       118  POPE      H13Y          -28.2482007357      -23.0172063888        3.9398811223  MEMB      118             0.0000000000
     13190       118  POPE      C314          -27.2874365228      -24.9559190235        3.4681495028  MEMB      118             0.0000000000
     13191       118  POPE      H14X          -28.1778154216      -25.4623580917        3.0379560502  MEMB      118             0.0000000000
     13192       118  POPE      H14Y          -26.5666332638      -25.6751250380        3.9125662763  MEMB      118             0.0000000000
     13193       118  POPE      C315          -26.5747868466      -24.4722931551        2.2014954390  MEMB      118             0.0000000000
     13194       118  POPE      H15X          -25.5316292560      -24.1383502720        2.3875740303  MEMB      118             0.0000000000
     13195       118  POPE      H15Y          -26.9818999497      -23.4526225477        2.0316381111  MEMB      118             0.0000000000
     13196       118  POPE      C316          -26.7586302918      -25.3394544710        0.9851006594  MEMB      118             0.0000000000
     13197       118  POPE      H16X          -25.9438712224      -25.3225072493        0.2299833219  MEMB      118             0.0000000000
     13198       118  POPE      H16Y          -27.7636937320      -25.1903909670        0.5357137713  MEMB      118             0.0000000000
     13199       118  POPE      H16Z          -26.5483811575      -26.3498008199        1.3965816042  MEMB      118             0.0000000000
     13200       119  POPC      N             -22.6931729010      -32.2573511572       19.5965690344  MEMB      119             0.0000000000
     13201       119  POPC      C12           -24.0801321934      -32.0763018932       20.0272131775  MEMB      119             0.0000000000
     13202       119  POPC      H12A          -24.2637199590      -32.7357549241       20.8625678253  MEMB      119             0.0000000000
     13203       119  POPC      H12B          -24.5823386240      -32.5313858814       19.1863283217  MEMB      119             0.0000000000
     13204       119  POPC      C13           -21.8339199621      -31.3386540972       20.4254950374  MEMB      119             0.0000000000
     13205       119  POPC      H13A          -20.8551806208      -31.4995959384       19.9982160478  MEMB      119             0.0000000000
     13206       119  POPC      H13B          -22.1553924030      -30.3126830293       20.3233246085  MEMB      119             0.0000000000
     13207       119  POPC      H13C          -21.8166994444      -31.7068380728       21.4406522613  MEMB      119             0.0000000000
     13208       119  POPC      C14           -22.3477875287      -33.6622953956       19.8462821316  MEMB      119             0.0000000000
     13209       119  POPC      H14A          -22.3375009239      -33.7016176373       20.9255169738  MEMB      119             0.0000000000
     13210       119  POPC      H14B          -23.1631391970      -34.2441266660       19.4424580561  MEMB      119             0.0000000000
     13211       119  POPC      H14C          -21.3878864701      -33.9934020854       19.4783711953  MEMB      119             0.0000000000
     13212       119  POPC      C15           -22.5952871018      -31.9179149862       18.0922082142  MEMB      119             0.0000000000
     13213       119  POPC      H15A          -21.5642039567      -32.0194428308       17.7873154362  MEMB      119             0.0000000000
     13214       119  POPC      H15B          -22.8788145257      -30.9139330766       17.8128651097  MEMB      119             0.0000000000
     13215       119  POPC      H15C          -23.3148970174      -32.5513162341       17.5948508251  MEMB      119             0.0000000000
     13216       119  POPC      C11           -24.7986377730      -30.6873232215       20.3202607467  MEMB      119             0.0000000000
     13217       119  POPC      H11A          -24.2192621066      -30.2515272347       21.1621197652  MEMB      119             0.0000000000
     13218       119  POPC      H11B          -25.8795766915      -30.8911764634       20.4762600506  MEMB      119             0.0000000000
     13219       119  POPC      P             -25.6035196803      -29.4607639211       18.1205814420  MEMB      119             0.0000000000
     13220       119  POPC      O13           -24.8564070940      -28.6186572565       17.0978448296  MEMB      119             0.0000000000
     13221       119  POPC      O14           -26.7674899964      -28.8693467417       18.7308262558  MEMB      119             0.0000000000
     13222       119  POPC      O12           -24.5645970825      -29.8023192189       19.2377086959  MEMB      119             0.0000000000
     13223       119  POPC      O11           -25.9250543903      -30.9386624141       17.5050104390  MEMB      119             0.0000000000
     13224       119  POPC      C1            -27.2692655474      -31.3420556350       17.4017008047  MEMB      119             0.0000000000
     13225       119  POPC      HA            -27.8091191776      -30.5803377828       16.7994840460  MEMB      119             0.0000000000
     13226       119  POPC      HB            -27.7375321071      -31.3591129938       18.4090519738  MEMB      119             0.0000000000
     13227       119  POPC      C2            -27.4290123917      -32.7583789130       16.6747096551  MEMB      119             0.0000000000
     13228       119  POPC      HS            -28.4453190777      -33.1074891682       16.9567797827  MEMB      119             0.0000000000
     13229       119  POPC      O21           -26.4843188983      -33.7787792364       17.0315058446  MEMB      119             0.0000000000
     13230       119  POPC      C21           -26.5293896848      -34.3769099141       18.1917593780  MEMB      119             0.0000000000
     13231       119  POPC      O22           -27.3085982647      -34.2160693432       19.0878733450  MEMB      119             0.0000000000
     13232       119  POPC      C22           -25.5209579878      -35.5629786591       18.1502062782  MEMB      119             0.0000000000
     13233       119  POPC      H2R           -26.0804163960      -36.4030509022       17.6858721554  MEMB      119             0.0000000000
     13234       119  POPC      H2S           -25.2283076872      -35.8727302493       19.1762329460  MEMB      119             0.0000000000
     13235       119  POPC      C3            -27.3991004730      -32.6270631272       15.1461531955  MEMB      119             0.0000000000
     13236       119  POPC      HX            -28.1117964180      -31.8920733076       14.7146725140  MEMB      119             0.0000000000
     13237       119  POPC      HY            -27.6001167862      -33.6215440014       14.6934712084  MEMB      119             0.0000000000
     13238       119  POPC      O31           -26.0325697160      -32.3303618267       14.7688528467  MEMB      119             0.0000000000
     13239       119  POPC      C31           -25.6702506532      -31.5555530967       13.8702864026  MEMB      119             0.0000000000
     13240       119  POPC      O32           -26.4555006002      -30.9385473796       13.1208408824  MEMB      119             0.0000000000
     13241       119  POPC      C32           -24.1403865790      -31.5322749088       13.9382716914  MEMB      119             0.0000000000
     13242       119  POPC      H2X           -23.7010095732      -32.3404902534       13.3153298864  MEMB      119             0.0000000000
     13243       119  POPC      H2Y           -23.8637382267      -31.6424322060       15.0086231416  MEMB      119             0.0000000000
     13244       119  POPC      C23           -24.2309679515      -35.2942001806       17.3026372843  MEMB      119             0.0000000000
     13245       119  POPC      H3R           -23.4199744778      -35.8658644936       17.8024479233  MEMB      119             0.0000000000
     13246       119  POPC      H3S           -23.8897853595      -34.2456586883       17.4385634342  MEMB      119             0.0000000000
     13247       119  POPC      C24           -24.4055921611      -35.6440773916       15.8297356657  MEMB      119             0.0000000000
     13248       119  POPC      H4R           -25.3564892203      -35.1134110141       15.6094885200  MEMB      119             0.0000000000
     13249       119  POPC      H4S           -24.7048459746      -36.6871139278       15.5913186864  MEMB      119             0.0000000000
     13250       119  POPC      C25           -23.1671607070      -35.3043968059       14.8481720520  MEMB      119             0.0000000000
     13251       119  POPC      H5R           -22.2685120238      -35.8317864909       15.2336744616  MEMB      119             0.0000000000
     13252       119  POPC      H5S           -22.9764064570      -34.2129446411       14.9298199864  MEMB      119             0.0000000000
     13253       119  POPC      C26           -23.4635246945      -35.7620863264       13.4583785958  MEMB      119             0.0000000000
     13254       119  POPC      H6R           -23.6306868598      -36.8603793522       13.4469872281  MEMB      119             0.0000000000
     13255       119  POPC      H6S           -22.6336360208      -35.5881175752       12.7405058513  MEMB      119             0.0000000000
     13256       119  POPC      C27           -24.7358799202      -35.1441327586       12.8838214858  MEMB      119             0.0000000000
     13257       119  POPC      H7R           -24.8283420077      -34.0585389853       13.1012113399  MEMB      119             0.0000000000
     13258       119  POPC      H7S           -25.5518145331      -35.6795560232       13.4147575298  MEMB      119             0.0000000000
     13259       119  POPC      C28           -24.8973524255      -35.2276770363       11.3752794363  MEMB      119             0.0000000000
     13260       119  POPC      H8R           -24.5470506418      -36.2577421149       11.1503899867  MEMB      119             0.0000000000
     13261       119  POPC      H8S           -24.1728210957      -34.5878736323       10.8275329995  MEMB      119             0.0000000000
     13262       119  POPC      C29           -26.3011131378      -35.0482834023       10.7589935377  MEMB      119             0.0000000000
     13263       119  POPC      H91           -26.9551518350      -35.9301423139       10.6914760101  MEMB      119             0.0000000000
     13264       119  POPC      C210          -26.8506846327      -33.9354319546       10.2249390950  MEMB      119             0.0000000000
     13265       119  POPC      H101          -27.9083951771      -33.9820830048        9.9264897312  MEMB      119             0.0000000000
     13266       119  POPC      C211          -26.2374470375      -32.6423207646       10.0884745904  MEMB      119             0.0000000000
     13267       119  POPC      H11R          -25.1476416471      -32.7187884277       10.2904592005  MEMB      119             0.0000000000
     13268       119  POPC      H11S          -26.7615466218      -31.9082857471       10.7371910087  MEMB      119             0.0000000000
     13269       119  POPC      C212          -26.2698936165      -31.9498049432        8.7069391377  MEMB      119             0.0000000000
     13270       119  POPC      H12R          -25.8645542154      -32.7389999705        8.0382144418  MEMB      119             0.0000000000
     13271       119  POPC      H12S          -25.5481550924      -31.1077665703        8.7731644848  MEMB      119             0.0000000000
     13272       119  POPC      C213          -27.7030695496      -31.5926032383        8.2650696319  MEMB      119             0.0000000000
     13273       119  POPC      H13R          -28.2602547562      -30.9855296952        9.0102732851  MEMB      119             0.0000000000
     13274       119  POPC      H13S          -28.2554931153      -32.5542322171        8.3315433694  MEMB      119             0.0000000000
     13275       119  POPC      C214          -27.9508978946      -31.1777274054        6.8299251915  MEMB      119             0.0000000000
     13276       119  POPC      H14R          -27.4862963074      -30.1709037573        6.7608424810  MEMB      119             0.0000000000
     13277       119  POPC      H14S          -29.0512690820      -31.0987494936        6.6985218409  MEMB      119             0.0000000000
     13278       119  POPC      C215          -27.3377832748      -32.1960632096        5.8545696283  MEMB      119             0.0000000000
     13279       119  POPC      H15R          -27.3695359843      -33.2270586056        6.2673168408  MEMB      119             0.0000000000
     13280       119  POPC      H15S          -26.2721856018      -31.9002890370        5.7480779153  MEMB      119             0.0000000000
     13281       119  POPC      C216          -28.0207218740      -32.2037258738        4.4705335113  MEMB      119             0.0000000000
     13282       119  POPC      H16R          -27.8900479189      -31.2342163965        3.9439435749  MEMB      119             0.0000000000
     13283       119  POPC      H16S          -29.0743123758      -32.5063508159        4.6513272205  MEMB      119             0.0000000000
     13284       119  POPC      C217          -27.6587195881      -33.4428202565        3.5556693469  MEMB      119             0.0000000000
     13285       119  POPC      H17R          -27.5887165523      -34.3067950065        4.2506282723  MEMB      119             0.0000000000
     13286       119  POPC      H17S          -26.5919759403      -33.4089014513        3.2470782113  MEMB      119             0.0000000000
     13287       119  POPC      C218          -28.6015752768      -33.7543629965        2.4178348164  MEMB      119             0.0000000000
     13288       119  POPC      H18R          -28.1584786983      -34.5873370208        1.8311998464  MEMB      119             0.0000000000
     13289       119  POPC      H18S          -28.7159166697      -32.9023204388        1.7140815087  MEMB      119             0.0000000000
     13290       119  POPC      H18T          -29.5733154392      -34.0936545992        2.8360741867  MEMB      119             0.0000000000
     13291       119  POPC      C33           -23.6472850865      -30.1451539493       13.4165812325  MEMB      119             0.0000000000
     13292       119  POPC      H3X           -24.2275050815      -29.4312252621       14.0394549457  MEMB      119             0.0000000000
     13293       119  POPC      H3Y           -24.0223918401      -29.9579530193       12.3877123849  MEMB      119             0.0000000000
     13294       119  POPC      C34           -22.1383804597      -29.9890939109       13.5144921270  MEMB      119             0.0000000000
     13295       119  POPC      H4X           -21.8700047509      -29.5222581470       14.4862735897  MEMB      119             0.0000000000
     13296       119  POPC      H4Y           -21.8318129864      -29.1743679579       12.8241592861  MEMB      119             0.0000000000
     13297       119  POPC      C35           -21.2378864712      -31.1919650701       13.2191587880  MEMB      119             0.0000000000
     13298       119  POPC      H5X           -21.4965979130      -31.8806812195       14.0516604013  MEMB      119             0.0000000000
     13299       119  POPC      H5Y           -20.1835193690      -30.8500742391       13.2949306333  MEMB      119             0.0000000000
     13300       119  POPC      C36           -21.4749651628      -31.9288392349       11.8738774458  MEMB      119             0.0000000000
     13301       119  POPC      H6X           -22.4464367715      -32.4588560576       11.7756623040  MEMB      119             0.0000000000
     13302       119  POPC      H6Y           -20.7700374216      -32.7871546789       11.9001856744  MEMB      119             0.0000000000
     13303       119  POPC      C37           -21.2209736634      -31.0691631702       10.6282549961  MEMB      119             0.0000000000
     13304       119  POPC      H7X           -20.1430528816      -30.8605991433       10.4582286633  MEMB      119             0.0000000000
     13305       119  POPC      H7Y           -21.7739358381      -30.1102633787       10.7234637461  MEMB      119             0.0000000000
     13306       119  POPC      C38           -21.6720200956      -31.6892487750        9.2735259604  MEMB      119             0.0000000000
     13307       119  POPC      H8X           -22.7334940602      -31.9252977895        9.5012861534  MEMB      119             0.0000000000
     13308       119  POPC      H8Y           -21.0459628052      -32.5814255574        9.0581331459  MEMB      119             0.0000000000
     13309       119  POPC      C39           -21.6565177827      -30.5595424660        8.1991187350  MEMB      119             0.0000000000
     13310       119  POPC      H9X           -20.8105588694      -29.8422002821        8.2631103408  MEMB      119             0.0000000000
     13311       119  POPC      H9Y           -22.5351755101      -29.9200795408        8.4301351945  MEMB      119             0.0000000000
     13312       119  POPC      C310          -21.7183925721      -31.2983031678        6.8026894712  MEMB      119             0.0000000000
     13313       119  POPC      H10X          -22.2166346357      -32.2801319608        6.9513100570  MEMB      119             0.0000000000
     13314       119  POPC      H10Y          -20.6408731128      -31.4729253418        6.5958567740  MEMB      119             0.0000000000
     13315       119  POPC      C311          -22.3089929644      -30.5046286378        5.5933715034  MEMB      119             0.0000000000
     13316       119  POPC      H11X          -22.2236263385      -31.1938828510        4.7262137686  MEMB      119             0.0000000000
     13317       119  POPC      H11Y          -21.6067104990      -29.6545945783        5.4571281155  MEMB      119             0.0000000000
     13318       119  POPC      C312          -23.7716569457      -30.0745632080        5.8904811036  MEMB      119             0.0000000000
     13319       119  POPC      H12X          -23.9100779750      -29.3382591891        6.7108576991  MEMB      119             0.0000000000
     13320       119  POPC      H12Y          -24.3442329344      -31.0204454741        5.9990373631  MEMB      119             0.0000000000
     13321       119  POPC      C313          -24.3245896999      -29.3334648202        4.5951869064  MEMB      119             0.0000000000
     13322       119  POPC      H13X          -23.6315144887      -28.4752620264        4.4630678086  MEMB      119             0.0000000000
     13323       119  POPC      H13Y          -25.3380309729      -28.9334306174        4.8125128317  MEMB      119             0.0000000000
     13324       119  POPC      C314          -24.4816480537      -30.2926117793        3.3722097242  MEMB      119             0.0000000000
     13325       119  POPC      H14X          -25.2161435062      -31.1105860032        3.5326950158  MEMB      119             0.0000000000
     13326       119  POPC      H14Y          -23.5359551208      -30.8518762513        3.2072577488  MEMB      119             0.0000000000
     13327       119  POPC      C315          -24.9007724737      -29.6336389151        2.0505099936  MEMB      119             0.0000000000
     13328       119  POPC      H15X          -24.6741701598      -30.3868323230        1.2658633246  MEMB      119             0.0000000000
     13329       119  POPC      H15Y          -24.2672877145      -28.7521846797        1.8137487680  MEMB      119             0.0000000000
     13330       119  POPC      C316          -26.3196847327      -29.2598148881        2.0497978236  MEMB      119             0.0000000000
     13331       119  POPC      H16X          -26.5692835067      -28.6507464111        1.1547807043  MEMB      119             0.0000000000
     13332       119  POPC      H16Y          -26.5025849072      -28.7418037804        3.0154746772  MEMB      119             0.0000000000
     13333       119  POPC      H16Z          -26.9797379358      -30.1365773968        1.8767711776  MEMB      119             0.0000000000
     13334       120  POPE      N              26.5684979074       39.7172479194       21.5241887610  MEMB      120             0.0000000000
     13335       120  POPE      HN1            25.9039666962       39.3786314343       22.2489903384  MEMB      120             0.0000000000
     13336       120  POPE      HN2            26.9637505843       38.9476665756       20.9470233488  MEMB      120             0.0000000000
     13337       120  POPE      HN3            27.3124603862       40.2583104258       22.0093395079  MEMB      120             0.0000000000
     13338       120  POPE      C12            25.7529766626       40.5809342821       20.5393832875  MEMB      120             0.0000000000
     13339       120  POPE      H12A           25.7513601732       41.6487791083       20.8460195990  MEMB      120             0.0000000000
     13340       120  POPE      H12B           24.7118539238       40.2009226717       20.4620818672  MEMB      120             0.0000000000
     13341       120  POPE      C11            26.3166434119       40.6616648127       19.0333708821  MEMB      120             0.0000000000
     13342       120  POPE      H11A           27.3440366016       41.0844875435       19.0356462691  MEMB      120             0.0000000000
     13343       120  POPE      H11B           25.5647293433       41.2732990323       18.4903703157  MEMB      120             0.0000000000
     13344       120  POPE      P              27.5997409277       38.5866483470       18.1927837875  MEMB      120             0.0000000000
     13345       120  POPE      O13            27.3378037684       37.1604065318       18.1627718996  MEMB      120             0.0000000000
     13346       120  POPE      O14            28.5641740968       38.9835870734       19.2496968716  MEMB      120             0.0000000000
     13347       120  POPE      O11            28.2240218038       38.9830915792       16.8430236745  MEMB      120             0.0000000000
     13348       120  POPE      O12            26.2449358241       39.3519698268       18.4547808348  MEMB      120             0.0000000000
     13349       120  POPE      C1             27.3486802956       38.9294924974       15.7105498802  MEMB      120             0.0000000000
     13350       120  POPE      HA             26.3629678726       39.4112545885       15.8854706604  MEMB      120             0.0000000000
     13351       120  POPE      HB             27.2701437783       37.8670153523       15.3954381411  MEMB      120             0.0000000000
     13352       120  POPE      C2             27.8763400219       39.6437939926       14.4613426935  MEMB      120             0.0000000000
     13353       120  POPE      HS             28.7720514622       39.0906355305       14.1063251433  MEMB      120             0.0000000000
     13354       120  POPE      O21            28.3245841777       40.8692708198       14.9063478820  MEMB      120             0.0000000000
     13355       120  POPE      C21            29.1975947755       41.5063624211       14.2106954569  MEMB      120             0.0000000000
     13356       120  POPE      O22            29.9564631708       41.0409688060       13.3650632047  MEMB      120             0.0000000000
     13357       120  POPE      C22            29.3130574804       42.9351368130       14.7275094551  MEMB      120             0.0000000000
     13358       120  POPE      H2R            30.1807499184       43.1223517981       15.3956274103  MEMB      120             0.0000000000
     13359       120  POPE      H2S            28.4562290639       43.1648049511       15.3964029587  MEMB      120             0.0000000000
     13360       120  POPE      C3             26.8716232574       39.8084768174       13.3058661460  MEMB      120             0.0000000000
     13361       120  POPE      HX             26.4320529952       38.8270153896       13.0268813227  MEMB      120             0.0000000000
     13362       120  POPE      HY             27.3814609848       40.2391299906       12.4176520429  MEMB      120             0.0000000000
     13363       120  POPE      O31            25.8008478418       40.6427167070       13.7446129379  MEMB      120             0.0000000000
     13364       120  POPE      C31            24.8210807462       40.6386251310       12.8496146276  MEMB      120             0.0000000000
     13365       120  POPE      O32            24.6660484553       39.8766629026       11.8929516181  MEMB      120             0.0000000000
     13366       120  POPE      C32            23.7903075465       41.7639024819       13.1616688270  MEMB      120             0.0000000000
     13367       120  POPE      H2X            24.0369287040       42.7098437613       12.6337539195  MEMB      120             0.0000000000
     13368       120  POPE      H2Y            23.5630668660       41.7952104368       14.2487301157  MEMB      120             0.0000000000
     13369       120  POPE      C23            29.5486919960       43.9657903717       13.5979993985  MEMB      120             0.0000000000
     13370       120  POPE      H3R            30.4836104050       43.7106456242       13.0547225559  MEMB      120             0.0000000000
     13371       120  POPE      H3S            29.5406983221       44.9856667296       14.0385775463  MEMB      120             0.0000000000
     13372       120  POPE      C24            28.5817780948       44.1615367951       12.4719779360  MEMB      120             0.0000000000
     13373       120  POPE      H4R            28.7126634740       43.2344886149       11.8738379040  MEMB      120             0.0000000000
     13374       120  POPE      H4S            28.8943622046       45.0094135964       11.8256674541  MEMB      120             0.0000000000
     13375       120  POPE      C25            27.1545146010       44.2580581403       13.0085325622  MEMB      120             0.0000000000
     13376       120  POPE      H5R            27.3034174830       44.9599028829       13.8568034024  MEMB      120             0.0000000000
     13377       120  POPE      H5S            26.8392193841       43.3166527561       13.5071964736  MEMB      120             0.0000000000
     13378       120  POPE      C26            26.1459901491       44.8772693791       12.0681052978  MEMB      120             0.0000000000
     13379       120  POPE      H6R            25.4127149897       45.3610968899       12.7482079614  MEMB      120             0.0000000000
     13380       120  POPE      H6S            25.6366329827       44.0968014197       11.4633356129  MEMB      120             0.0000000000
     13381       120  POPE      C27            26.5315525895       45.9908811455       11.0489152341  MEMB      120             0.0000000000
     13382       120  POPE      H7R            27.2200988947       46.6870207644       11.5739053717  MEMB      120             0.0000000000
     13383       120  POPE      H7S            25.5680106652       46.5336371081       10.9425013935  MEMB      120             0.0000000000
     13384       120  POPE      C28            27.1154340039       45.6000362164        9.7255362926  MEMB      120             0.0000000000
     13385       120  POPE      H8R            28.0294074550       44.9904249743        9.8909072188  MEMB      120             0.0000000000
     13386       120  POPE      H8S            27.5620982183       46.5541641913        9.3727591270  MEMB      120             0.0000000000
     13387       120  POPE      C29            26.1469210334       45.0077540619        8.7018188774  MEMB      120             0.0000000000
     13388       120  POPE      H91            25.4593318286       45.7565450274        8.2816603784  MEMB      120             0.0000000000
     13389       120  POPE      C210           26.1520140919       43.7692380360        8.2489079483  MEMB      120             0.0000000000
     13390       120  POPE      H101           25.4013404740       43.5524216377        7.4746474562  MEMB      120             0.0000000000
     13391       120  POPE      C211           27.1576440361       42.6883126800        8.6196247852  MEMB      120             0.0000000000
     13392       120  POPE      H11R           27.7745673479       42.9306476062        9.5112523300  MEMB      120             0.0000000000
     13393       120  POPE      H11S           27.9305304189       42.5417556779        7.8350935932  MEMB      120             0.0000000000
     13394       120  POPE      C212           26.4688842807       41.2587027996        8.6900938756  MEMB      120             0.0000000000
     13395       120  POPE      H12R           25.5768791600       41.3063280998        9.3506848366  MEMB      120             0.0000000000
     13396       120  POPE      H12S           27.1714987710       40.5578218956        9.1895143199  MEMB      120             0.0000000000
     13397       120  POPE      C213           26.1827890979       40.7750014471        7.2785158647  MEMB      120             0.0000000000
     13398       120  POPE      H13R           26.5028257627       41.5427635541        6.5420116101  MEMB      120             0.0000000000
     13399       120  POPE      H13S           25.0770001611       40.6778979051        7.3245892212  MEMB      120             0.0000000000
     13400       120  POPE      C214           26.7734260574       39.4074619646        6.7982393206  MEMB      120             0.0000000000
     13401       120  POPE      H14R           26.9083192154       38.8698441739        7.7610950100  MEMB      120             0.0000000000
     13402       120  POPE      H14S           27.7560735518       39.4885864598        6.2862394705  MEMB      120             0.0000000000
     13403       120  POPE      C215           25.7464224665       38.7895612161        5.7678059641  MEMB      120             0.0000000000
     13404       120  POPE      H15R           24.7226556388       38.6921433875        6.1882019681  MEMB      120             0.0000000000
     13405       120  POPE      H15S           26.0041916838       37.7169808619        5.6357163589  MEMB      120             0.0000000000
     13406       120  POPE      C216           25.6973481169       39.5746567377        4.4739928366  MEMB      120             0.0000000000
     13407       120  POPE      H16R           26.7378219718       39.7893794929        4.1489858535  MEMB      120             0.0000000000
     13408       120  POPE      H16S           25.0423460174       40.4718562617        4.4920537566  MEMB      120             0.0000000000
     13409       120  POPE      C217           24.9902940961       38.6736471427        3.3369899516  MEMB      120             0.0000000000
     13410       120  POPE      H17R           24.0619917474       38.3386020833        3.8472064788  MEMB      120             0.0000000000
     13411       120  POPE      H17S           25.5611630407       37.8172981795        2.9185451461  MEMB      120             0.0000000000
     13412       120  POPE      C218           24.5175227675       39.5918857975        2.1872440148  MEMB      120             0.0000000000
     13413       120  POPE      H18R           23.8135674322       39.1151812678        1.4720379418  MEMB      120             0.0000000000
     13414       120  POPE      H18S           25.3723759304       39.9762471084        1.5907444899  MEMB      120             0.0000000000
     13415       120  POPE      H18T           23.9287167961       40.4251894460        2.6268278295  MEMB      120             0.0000000000
     13416       120  POPE      C33            22.4764325808       41.3445375369       12.4284696057  MEMB      120             0.0000000000
     13417       120  POPE      H3X            21.6696977999       41.7286427686       13.0887444051  MEMB      120             0.0000000000
     13418       120  POPE      H3Y            22.2450200527       40.2586106451       12.4676105271  MEMB      120             0.0000000000
     13419       120  POPE      C34            22.3630916402       41.6811313280       10.9606104155  MEMB      120             0.0000000000
     13420       120  POPE      H4X            23.2855883166       41.2722619019       10.4956945549  MEMB      120             0.0000000000
     13421       120  POPE      H4Y            22.3818702368       42.7678392070       10.7303187772  MEMB      120             0.0000000000
     13422       120  POPE      C35            21.1169853388       41.1801007542       10.2866409539  MEMB      120             0.0000000000
     13423       120  POPE      H5X            20.3131562142       41.6631699367       10.8823112568  MEMB      120             0.0000000000
     13424       120  POPE      H5Y            21.0125540583       40.0740530215       10.2780827841  MEMB      120             0.0000000000
     13425       120  POPE      C36            21.0239819882       41.6843060682        8.8503362398  MEMB      120             0.0000000000
     13426       120  POPE      H6X            21.4178580453       42.7217913819        8.7973556825  MEMB      120             0.0000000000
     13427       120  POPE      H6Y            19.9497135560       41.7811953986        8.5841015690  MEMB      120             0.0000000000
     13428       120  POPE      C37            21.8418643901       40.7765964932        7.9200138346  MEMB      120             0.0000000000
     13429       120  POPE      H7X            21.2803613933       39.8525574792        7.6646969013  MEMB      120             0.0000000000
     13430       120  POPE      H7Y            22.7744258319       40.3870070208        8.3813922647  MEMB      120             0.0000000000
     13431       120  POPE      C38            22.2471255315       41.5601486994        6.6778155356  MEMB      120             0.0000000000
     13432       120  POPE      H8X            22.6242529894       40.7074055482        6.0737252737  MEMB      120             0.0000000000
     13433       120  POPE      H8Y            23.0193218619       42.2841274871        7.0152891316  MEMB      120             0.0000000000
     13434       120  POPE      C39            21.0489806835       42.1781031201        5.8877344411  MEMB      120             0.0000000000
     13435       120  POPE      H9X            20.5891948583       43.0485563182        6.4027388606  MEMB      120             0.0000000000
     13436       120  POPE      H9Y            20.1921228575       41.4725923722        5.8390429838  MEMB      120             0.0000000000
     13437       120  POPE      C310           21.4585022521       42.4511767504        4.3946360655  MEMB      120             0.0000000000
     13438       120  POPE      H10X           20.4781517786       42.5860061199        3.8896065831  MEMB      120             0.0000000000
     13439       120  POPE      H10Y           22.0175574900       41.6070734983        3.9371779181  MEMB      120             0.0000000000
     13440       120  POPE      C311           22.2112111466       43.8763768935        4.4108432553  MEMB      120             0.0000000000
     13441       120  POPE      H11X           22.1843783509       44.4415077703        5.3669959148  MEMB      120             0.0000000000
     13442       120  POPE      H11Y           21.8246664361       44.4783787674        3.5608458777  MEMB      120             0.0000000000
     13443       120  POPE      C312           23.7494474541       43.6577725161        4.1814117446  MEMB      120             0.0000000000
     13444       120  POPE      H12X           24.1344868129       42.7245247428        4.6452165475  MEMB      120             0.0000000000
     13445       120  POPE      H12Y           24.4076711930       44.4792992479        4.5365971667  MEMB      120             0.0000000000
     13446       120  POPE      C313           24.1863184157       43.7152514704        2.6855217579  MEMB      120             0.0000000000
     13447       120  POPE      H13X           23.7502849607       44.6775602734        2.3417840618  MEMB      120             0.0000000000
     13448       120  POPE      H13Y           23.6864197620       43.0112376416        1.9863896996  MEMB      120             0.0000000000
     13449       120  POPE      C314           25.6956524308       43.6938013750        2.5038277575  MEMB      120             0.0000000000
     13450       120  POPE      H14X           26.0054328418       42.6452018089        2.7007964973  MEMB      120             0.0000000000
     13451       120  POPE      H14Y           26.0841771645       44.5178570777        3.1396756493  MEMB      120             0.0000000000
     13452       120  POPE      C315           26.1400746516       43.9674489651        1.0557140190  MEMB      120             0.0000000000
     13453       120  POPE      H15X           27.0831820753       44.5485214574        1.1407087649  MEMB      120             0.0000000000
     13454       120  POPE      H15Y           25.3407956757       44.5461060928        0.5451924582  MEMB      120             0.0000000000
     13455       120  POPE      C316           26.3768590264       42.6905938126        0.1574379257  MEMB      120             0.0000000000
     13456       120  POPE      H16X           26.6423232053       42.9505042299       -0.8896051279  MEMB      120             0.0000000000
     13457       120  POPE      H16Y           25.4747733310       42.0423200115        0.1400148716  MEMB      120             0.0000000000
     13458       120  POPE      H16Z           27.1726963615       42.1293811389        0.6922295049  MEMB      120             0.0000000000
     13459       121  POPE      N              26.5946154044      -26.8773041351       16.9335599000  MEMB      121             0.0000000000
     13460       121  POPE      HN1            27.4743839337      -26.9529282491       16.3841162528  MEMB      121             0.0000000000
     13461       121  POPE      HN2            26.2783377678      -27.8679844295       16.9225658451  MEMB      121             0.0000000000
     13462       121  POPE      HN3            25.9893590333      -26.1924888109       16.4372810065  MEMB      121             0.0000000000
     13463       121  POPE      C12            27.1775381081      -26.4745200815       18.2561755666  MEMB      121             0.0000000000
     13464       121  POPE      H12A           26.3702190719      -26.4710563970       19.0194217997  MEMB      121             0.0000000000
     13465       121  POPE      H12B           27.6114093315      -25.4773805061       18.0286023577  MEMB      121             0.0000000000
     13466       121  POPE      C11            28.3204401376      -27.3814794289       18.8407286334  MEMB      121             0.0000000000
     13467       121  POPE      H11A           28.5495344855      -27.1807620540       19.9091617490  MEMB      121             0.0000000000
     13468       121  POPE      H11B           29.2749861771      -27.1819102516       18.3084362039  MEMB      121             0.0000000000
     13469       121  POPE      P              27.4796194381      -29.7849692811       19.7002693281  MEMB      121             0.0000000000
     13470       121  POPE      O13            26.6881715334      -29.0634753272       20.7558844090  MEMB      121             0.0000000000
     13471       121  POPE      O14            28.6350417831      -30.5786778097       20.1003351916  MEMB      121             0.0000000000
     13472       121  POPE      O11            26.5482044125      -30.6976255667       18.8660150129  MEMB      121             0.0000000000
     13473       121  POPE      O12            28.0185923819      -28.7650715658       18.5470319769  MEMB      121             0.0000000000
     13474       121  POPE      C1             25.1743380520      -30.3270038074       18.4349940865  MEMB      121             0.0000000000
     13475       121  POPE      HA             25.1793546530      -29.4269978456       17.7836225235  MEMB      121             0.0000000000
     13476       121  POPE      HB             24.6006319890      -30.1116993958       19.3617230726  MEMB      121             0.0000000000
     13477       121  POPE      C2             24.4416856378      -31.4553864337       17.6793768005  MEMB      121             0.0000000000
     13478       121  POPE      HS             24.5931846173      -32.4093041216       18.2283850409  MEMB      121             0.0000000000
     13479       121  POPE      O21            25.1466933399      -31.5797627386       16.3922984768  MEMB      121             0.0000000000
     13480       121  POPE      C21            26.1107282953      -32.3962807832       16.4050659911  MEMB      121             0.0000000000
     13481       121  POPE      O22            26.4638886005      -33.1597898253       17.2825345823  MEMB      121             0.0000000000
     13482       121  POPE      C22            26.7483066350      -32.3028136398       14.9704335599  MEMB      121             0.0000000000
     13483       121  POPE      H2R            25.9535134993      -32.3048060500       14.1941469404  MEMB      121             0.0000000000
     13484       121  POPE      H2S            27.3685286323      -33.2080453695       14.7966494752  MEMB      121             0.0000000000
     13485       121  POPE      C3             22.9601372305      -31.1230267982       17.3625367657  MEMB      121             0.0000000000
     13486       121  POPE      HX             22.5590762803      -31.3380712889       18.3760587834  MEMB      121             0.0000000000
     13487       121  POPE      HY             22.6183546488      -31.8620976610       16.6067063279  MEMB      121             0.0000000000
     13488       121  POPE      O31            22.6494808090      -29.7685186734       16.9851019592  MEMB      121             0.0000000000
     13489       121  POPE      C31            23.1308207209      -29.4213915458       15.7993731997  MEMB      121             0.0000000000
     13490       121  POPE      O32            23.5046511362      -30.1108552794       14.9082337582  MEMB      121             0.0000000000
     13491       121  POPE      C32            23.0696551833      -27.8569412804       15.7206469333  MEMB      121             0.0000000000
     13492       121  POPE      H2X            23.5813216698      -27.5772319789       16.6663113333  MEMB      121             0.0000000000
     13493       121  POPE      H2Y            22.0077830251      -27.5384105678       15.6479361069  MEMB      121             0.0000000000
     13494       121  POPE      C23            27.5828900431      -31.0068043935       14.8251099374  MEMB      121             0.0000000000
     13495       121  POPE      H3R            28.4614808285      -31.0726335364       15.5019154063  MEMB      121             0.0000000000
     13496       121  POPE      H3S            26.9487363220      -30.1726287234       15.1943265926  MEMB      121             0.0000000000
     13497       121  POPE      C24            28.0591393413      -30.7073631545       13.3908661372  MEMB      121             0.0000000000
     13498       121  POPE      H4R            27.0362919147      -30.5768001721       12.9772756049  MEMB      121             0.0000000000
     13499       121  POPE      H4S            28.3516413816      -31.6655228991       12.9105605443  MEMB      121             0.0000000000
     13500       121  POPE      C25            29.0620306274      -29.5876172720       13.1841211452  MEMB      121             0.0000000000
     13501       121  POPE      H5R            29.5472934737      -29.6658668696       12.1877688020  MEMB      121             0.0000000000
     13502       121  POPE      H5S            29.9094944048      -29.8231058636       13.8628488157  MEMB      121             0.0000000000
     13503       121  POPE      C26            28.6672177438      -28.1711546291       13.4816938954  MEMB      121             0.0000000000
     13504       121  POPE      H6R            29.2419230229      -27.8726946836       14.3844436037  MEMB      121             0.0000000000
     13505       121  POPE      H6S            27.5646866126      -28.1198671079       13.6086417030  MEMB      121             0.0000000000
     13506       121  POPE      C27            28.8678494406      -27.1123125500       12.3831207534  MEMB      121             0.0000000000
     13507       121  POPE      H7R            28.3854618121      -26.1865072638       12.7632628404  MEMB      121             0.0000000000
     13508       121  POPE      H7S            28.3703753780      -27.3744273945       11.4249266466  MEMB      121             0.0000000000
     13509       121  POPE      C28            30.3433425753      -26.8320685341       12.1146740115  MEMB      121             0.0000000000
     13510       121  POPE      H8R            30.8341099094      -27.7898022648       11.8386042542  MEMB      121             0.0000000000
     13511       121  POPE      H8S            30.8918960132      -26.4294768347       12.9929276333  MEMB      121             0.0000000000
     13512       121  POPE      C29            30.5261016414      -25.8681812843       11.0288888426  MEMB      121             0.0000000000
     13513       121  POPE      H91            31.1472139503      -24.9886531467       11.2539451528  MEMB      121             0.0000000000
     13514       121  POPE      C210           30.1325932946      -25.8652147794        9.7589185103  MEMB      121             0.0000000000
     13515       121  POPE      H101           30.3891639220      -24.9826205204        9.1546016258  MEMB      121             0.0000000000
     13516       121  POPE      C211           29.3578556209      -27.0077826528        9.0458596968  MEMB      121             0.0000000000
     13517       121  POPE      H11R           28.3113029449      -26.8808582164        9.3964853021  MEMB      121             0.0000000000
     13518       121  POPE      H11S           29.6726572989      -27.9386544677        9.5642214831  MEMB      121             0.0000000000
     13519       121  POPE      C212           29.5607880043      -27.1026138535        7.5477693707  MEMB      121             0.0000000000
     13520       121  POPE      H12R           30.6321519528      -27.3959054379        7.5258567871  MEMB      121             0.0000000000
     13521       121  POPE      H12S           29.5437617630      -26.0897217896        7.0916111319  MEMB      121             0.0000000000
     13522       121  POPE      C213           28.5724697974      -27.9862724235        6.8364966885  MEMB      121             0.0000000000
     13523       121  POPE      H13R           27.5905899265      -27.4673277224        6.8060102303  MEMB      121             0.0000000000
     13524       121  POPE      H13S           28.2969483765      -28.9390464899        7.3371263055  MEMB      121             0.0000000000
     13525       121  POPE      C214           29.1134850465      -28.3264347906        5.4149527375  MEMB      121             0.0000000000
     13526       121  POPE      H14R           29.9196921866      -29.0697659994        5.5933044103  MEMB      121             0.0000000000
     13527       121  POPE      H14S           29.4701480881      -27.3579297322        5.0037220158  MEMB      121             0.0000000000
     13528       121  POPE      C215           27.9633717390      -28.9498663048        4.4973471935  MEMB      121             0.0000000000
     13529       121  POPE      H15R           27.0345955048      -28.3477352614        4.5929183496  MEMB      121             0.0000000000
     13530       121  POPE      H15S           27.7763935929      -29.9618199931        4.9160468880  MEMB      121             0.0000000000
     13531       121  POPE      C216           28.3932595283      -29.3316059265        3.0368547261  MEMB      121             0.0000000000
     13532       121  POPE      H16R           28.8690116014      -28.4872965220        2.4936028404  MEMB      121             0.0000000000
     13533       121  POPE      H16S           27.4340125147      -29.5057763885        2.5040972409  MEMB      121             0.0000000000
     13534       121  POPE      C217           29.3912075088      -30.4890907138        2.9938556130  MEMB      121             0.0000000000
     13535       121  POPE      H17R           28.9596445395      -31.3622999275        3.5282519353  MEMB      121             0.0000000000
     13536       121  POPE      H17S           30.3049488526      -30.1544505693        3.5299643312  MEMB      121             0.0000000000
     13537       121  POPE      C218           29.7606887768      -30.9659697675        1.6056101203  MEMB      121             0.0000000000
     13538       121  POPE      H18R           30.1839460536      -30.1260545878        1.0142417129  MEMB      121             0.0000000000
     13539       121  POPE      H18S           28.8762434179      -31.4288647428        1.1179576357  MEMB      121             0.0000000000
     13540       121  POPE      H18T           30.5789350846      -31.7096234448        1.4971043537  MEMB      121             0.0000000000
     13541       121  POPE      C33            23.9773143064      -27.2145733424       14.6247892483  MEMB      121             0.0000000000
     13542       121  POPE      H3X            24.9718159803      -27.7091659561       14.6505863725  MEMB      121             0.0000000000
     13543       121  POPE      H3Y            24.0509164021      -26.1592597220       14.9642253824  MEMB      121             0.0000000000
     13544       121  POPE      C34            23.5697376456      -27.3255233043       13.1251390025  MEMB      121             0.0000000000
     13545       121  POPE      H4X            22.6250765437      -26.7898210927       12.8907053060  MEMB      121             0.0000000000
     13546       121  POPE      H4Y            23.4815317555      -28.4085141164       12.8934671406  MEMB      121             0.0000000000
     13547       121  POPE      C35            24.6826408410      -26.8395691157       12.1619941330  MEMB      121             0.0000000000
     13548       121  POPE      H5X            24.3781919349      -26.9757894715       11.1022418833  MEMB      121             0.0000000000
     13549       121  POPE      H5Y            25.6924641498      -27.2707079198       12.3313967048  MEMB      121             0.0000000000
     13550       121  POPE      C36            24.9508940941      -25.2728209475       12.2863248602  MEMB      121             0.0000000000
     13551       121  POPE      H6X            25.3841166339      -25.0677970034       13.2886242421  MEMB      121             0.0000000000
     13552       121  POPE      H6Y            23.9435474270      -24.8122908092       12.3728455802  MEMB      121             0.0000000000
     13553       121  POPE      C37            25.8405623699      -24.5663434455       11.2756171266  MEMB      121             0.0000000000
     13554       121  POPE      H7X            26.9101666447      -24.7705122062       11.4960319941  MEMB      121             0.0000000000
     13555       121  POPE      H7Y            25.6788261195      -23.4797934697       11.1095692277  MEMB      121             0.0000000000
     13556       121  POPE      C38            25.7607257099      -25.1161348435        9.8546600458  MEMB      121             0.0000000000
     13557       121  POPE      H8X            26.0470736354      -26.1885236631        9.9027031974  MEMB      121             0.0000000000
     13558       121  POPE      H8Y            26.5321207508      -24.6711182813        9.1904079119  MEMB      121             0.0000000000
     13559       121  POPE      C39            24.4321148338      -24.9255075149        9.1895867807  MEMB      121             0.0000000000
     13560       121  POPE      H9X            24.3405480763      -23.8242213789        9.0751065000  MEMB      121             0.0000000000
     13561       121  POPE      H9Y            23.5992742903      -25.2416924952        9.8534578382  MEMB      121             0.0000000000
     13562       121  POPE      C310           24.3017171654      -25.6923475712        7.8184706976  MEMB      121             0.0000000000
     13563       121  POPE      H10X           23.2202298169      -25.5759698366        7.5922793372  MEMB      121             0.0000000000
     13564       121  POPE      H10Y           24.7196256017      -26.7032090321        8.0129780231  MEMB      121             0.0000000000
     13565       121  POPE      C311           24.9805006215      -25.0164162230        6.6415935231  MEMB      121             0.0000000000
     13566       121  POPE      H11X           26.0757039479      -24.9955792359        6.8271089174  MEMB      121             0.0000000000
     13567       121  POPE      H11Y           24.7132261553      -23.9564240479        6.4433444621  MEMB      121             0.0000000000
     13568       121  POPE      C312           24.8033071420      -25.8346248660        5.3556397174  MEMB      121             0.0000000000
     13569       121  POPE      H12X           23.8914500835      -26.3887584933        5.6651128032  MEMB      121             0.0000000000
     13570       121  POPE      H12Y           25.6358197956      -26.5326682419        5.1233053933  MEMB      121             0.0000000000
     13571       121  POPE      C313           24.5353635745      -24.9932507988        4.0784689215  MEMB      121             0.0000000000
     13572       121  POPE      H13X           25.4078643580      -24.6510934054        3.4818189196  MEMB      121             0.0000000000
     13573       121  POPE      H13Y           24.0730381002      -24.0373892265        4.4054318239  MEMB      121             0.0000000000
     13574       121  POPE      C314           23.4533594034      -25.6670541420        3.2197430198  MEMB      121             0.0000000000
     13575       121  POPE      H14X           22.4390208461      -25.6373161165        3.6720202809  MEMB      121             0.0000000000
     13576       121  POPE      H14Y           23.8283453376      -26.7028545687        3.0754399911  MEMB      121             0.0000000000
     13577       121  POPE      C315           23.3103275162      -25.0427230705        1.8301205400  MEMB      121             0.0000000000
     13578       121  POPE      H15X           24.2053355717      -25.2153046093        1.1949061255  MEMB      121             0.0000000000
     13579       121  POPE      H15Y           23.2692461202      -23.9325038286        1.8369596142  MEMB      121             0.0000000000
     13580       121  POPE      C316           22.0990931674      -25.5432472004        0.9912709571  MEMB      121             0.0000000000
     13581       121  POPE      H16X           22.3597634464      -25.3696356090       -0.0746702379  MEMB      121             0.0000000000
     13582       121  POPE      H16Y           21.1157170919      -25.0913792537        1.2424851585  MEMB      121             0.0000000000
     13583       121  POPE      H16Z           21.8860825388      -26.6087992740        1.2226716209  MEMB      121             0.0000000000
     13584       122  POPE      N             -42.4227889847       -6.9016815636       17.4922937988  MEMB      122             0.0000000000
     13585       122  POPE      HN1           -43.1058576642       -6.1415649973       17.6852707187  MEMB      122             0.0000000000
     13586       122  POPE      HN2           -41.4950509674       -6.5185668258       17.2200345341  MEMB      122             0.0000000000
     13587       122  POPE      HN3           -42.6996968285       -7.4740493726       16.6693009099  MEMB      122             0.0000000000
     13588       122  POPE      C12           -42.3185689659       -7.8485373313       18.6460083830  MEMB      122             0.0000000000
     13589       122  POPE      H12A          -42.0796860206       -7.1770629064       19.4982866072  MEMB      122             0.0000000000
     13590       122  POPE      H12B          -41.3306630586       -8.3309309378       18.4858221729  MEMB      122             0.0000000000
     13591       122  POPE      C11           -43.4979394933       -8.7809995782       18.8510529476  MEMB      122             0.0000000000
     13592       122  POPE      H11A          -43.3747733409       -9.3919354000       19.7707857759  MEMB      122             0.0000000000
     13593       122  POPE      H11B          -43.5368747022       -9.4668612950       17.9778984724  MEMB      122             0.0000000000
     13594       122  POPE      P             -46.1203886683       -8.5615017052       19.4826012176  MEMB      122             0.0000000000
     13595       122  POPE      O13           -46.8430921647       -7.5334346456       20.2343010294  MEMB      122             0.0000000000
     13596       122  POPE      O14           -46.0165898604       -9.8943556232       20.1632208338  MEMB      122             0.0000000000
     13597       122  POPE      O11           -46.8958358374       -8.8475881876       18.0912862039  MEMB      122             0.0000000000
     13598       122  POPE      O12           -44.6970712251       -8.0045112827       19.0392355843  MEMB      122             0.0000000000
     13599       122  POPE      C1            -46.6092433446       -7.9154395847       17.0786628859  MEMB      122             0.0000000000
     13600       122  POPE      HA            -45.5614744730       -8.0347965464       16.7290127579  MEMB      122             0.0000000000
     13601       122  POPE      HB            -46.8650936424       -6.8879746215       17.4150810967  MEMB      122             0.0000000000
     13602       122  POPE      C2            -47.4106334146       -8.1382597005       15.7721754382  MEMB      122             0.0000000000
     13603       122  POPE      HS            -48.4837313147       -8.0175990828       16.0333715894  MEMB      122             0.0000000000
     13604       122  POPE      O21           -46.9915101650       -9.4526672554       15.2863237101  MEMB      122             0.0000000000
     13605       122  POPE      C21           -47.7037140844      -10.1225186460       14.3971714230  MEMB      122             0.0000000000
     13606       122  POPE      O22           -48.8703531208       -9.7622886439       14.1712571422  MEMB      122             0.0000000000
     13607       122  POPE      C22           -47.0270328874      -11.3519416466       13.9723350763  MEMB      122             0.0000000000
     13608       122  POPE      H2R           -47.5726720543      -12.2921551440       14.2016755326  MEMB      122             0.0000000000
     13609       122  POPE      H2S           -46.0903672864      -11.5097920281       14.5485833729  MEMB      122             0.0000000000
     13610       122  POPE      C3            -47.0338597445       -7.0280824183       14.7137104817  MEMB      122             0.0000000000
     13611       122  POPE      HX            -47.2476297720       -6.0238839430       15.1382209851  MEMB      122             0.0000000000
     13612       122  POPE      HY            -47.7565229702       -6.9244200144       13.8762541846  MEMB      122             0.0000000000
     13613       122  POPE      O31           -45.6649388248       -7.1069684587       14.3078839461  MEMB      122             0.0000000000
     13614       122  POPE      C31           -45.1154813477       -6.0267150064       13.7862117884  MEMB      122             0.0000000000
     13615       122  POPE      O32           -45.7672782959       -5.0084302337       13.5256563382  MEMB      122             0.0000000000
     13616       122  POPE      C32           -43.6552394011       -6.2674680707       13.2942240855  MEMB      122             0.0000000000
     13617       122  POPE      H2X           -43.0318956843       -6.7846851717       14.0546517035  MEMB      122             0.0000000000
     13618       122  POPE      H2Y           -43.1467997323       -5.2838621606       13.2029573919  MEMB      122             0.0000000000
     13619       122  POPE      C23           -46.8159207179      -11.1167913272       12.4828267043  MEMB      122             0.0000000000
     13620       122  POPE      H3R           -46.3141381002      -10.1577444204       12.2322997493  MEMB      122             0.0000000000
     13621       122  POPE      H3S           -47.8141200009      -11.1519325783       11.9963244269  MEMB      122             0.0000000000
     13622       122  POPE      C24           -45.9370497882      -12.2176384001       11.7740672247  MEMB      122             0.0000000000
     13623       122  POPE      H4R           -46.3111985930      -13.2496970695       11.9449151257  MEMB      122             0.0000000000
     13624       122  POPE      H4S           -44.8981411901      -12.0891541094       12.1461991031  MEMB      122             0.0000000000
     13625       122  POPE      C25           -45.8758243330      -11.8198723502       10.2637711336  MEMB      122             0.0000000000
     13626       122  POPE      H5R           -45.7401619763      -10.7253719330       10.1296621322  MEMB      122             0.0000000000
     13627       122  POPE      H5S           -46.8444677917      -11.9627006703        9.7387465309  MEMB      122             0.0000000000
     13628       122  POPE      C26           -44.8602478251      -12.5153250170        9.4204422458  MEMB      122             0.0000000000
     13629       122  POPE      H6R           -45.0613656065      -13.6076720283        9.3949293728  MEMB      122             0.0000000000
     13630       122  POPE      H6S           -43.8585876584      -12.4288283719        9.8932173518  MEMB      122             0.0000000000
     13631       122  POPE      C27           -44.6890851131      -12.2522319582        7.9000878308  MEMB      122             0.0000000000
     13632       122  POPE      H7R           -45.7062095923      -12.5713056198        7.5870849595  MEMB      122             0.0000000000
     13633       122  POPE      H7S           -43.8662819224      -12.8703909074        7.4815242113  MEMB      122             0.0000000000
     13634       122  POPE      C28           -44.4116069703      -10.7315152258        7.5944505374  MEMB      122             0.0000000000
     13635       122  POPE      H8R           -45.2400920668      -10.2452860741        8.1525857244  MEMB      122             0.0000000000
     13636       122  POPE      H8S           -44.6862577944      -10.5553733329        6.5324425752  MEMB      122             0.0000000000
     13637       122  POPE      C29           -43.0582500851      -10.1668568732        8.0204245619  MEMB      122             0.0000000000
     13638       122  POPE      H91           -43.0160499418       -9.7219848393        9.0255652965  MEMB      122             0.0000000000
     13639       122  POPE      C210          -42.0790596665      -10.0156892222        7.1743480153  MEMB      122             0.0000000000
     13640       122  POPE      H101          -41.0758928521       -9.6998620543        7.4966989585  MEMB      122             0.0000000000
     13641       122  POPE      C211          -42.1089425479      -10.3207564078        5.6964249230  MEMB      122             0.0000000000
     13642       122  POPE      H11R          -43.0296626420       -9.9676205322        5.1846726549  MEMB      122             0.0000000000
     13643       122  POPE      H11S          -42.0488195112      -11.4057692602        5.4652261059  MEMB      122             0.0000000000
     13644       122  POPE      C212          -40.7637272162       -9.7634011909        5.0390188069  MEMB      122             0.0000000000
     13645       122  POPE      H12R          -40.8361418990      -10.0994173537        3.9825295068  MEMB      122             0.0000000000
     13646       122  POPE      H12S          -39.8879960394      -10.3141654506        5.4440812055  MEMB      122             0.0000000000
     13647       122  POPE      C213          -40.5265616522       -8.2143736525        5.0663561906  MEMB      122             0.0000000000
     13648       122  POPE      H13R          -40.1206777880       -8.0199174001        6.0821152312  MEMB      122             0.0000000000
     13649       122  POPE      H13S          -41.5042783767       -7.6993200780        4.9518534136  MEMB      122             0.0000000000
     13650       122  POPE      C214          -39.5173263840       -7.7014985734        4.0368935546  MEMB      122             0.0000000000
     13651       122  POPE      H14R          -38.6440195840       -8.3682154944        3.8721363771  MEMB      122             0.0000000000
     13652       122  POPE      H14S          -39.1203620917       -6.8074451572        4.5635894257  MEMB      122             0.0000000000
     13653       122  POPE      C215          -40.2290159381       -7.2263707797        2.8000070093  MEMB      122             0.0000000000
     13654       122  POPE      H15R          -39.4738418207       -6.5899239637        2.2911160269  MEMB      122             0.0000000000
     13655       122  POPE      H15S          -41.1134364412       -6.6005194053        3.0458349689  MEMB      122             0.0000000000
     13656       122  POPE      C216          -40.6707655852       -8.3819490781        1.8791557626  MEMB      122             0.0000000000
     13657       122  POPE      H16R          -41.5866499637       -8.7635842660        2.3789868213  MEMB      122             0.0000000000
     13658       122  POPE      H16S          -39.9918739710       -9.2611859807        1.8599170873  MEMB      122             0.0000000000
     13659       122  POPE      C217          -41.0206872137       -7.9911962886        0.4420333100  MEMB      122             0.0000000000
     13660       122  POPE      H17R          -41.1758004135       -8.9207277347       -0.1463815158  MEMB      122             0.0000000000
     13661       122  POPE      H17S          -40.0887373006       -7.5318435510        0.0486059783  MEMB      122             0.0000000000
     13662       122  POPE      C218          -42.2731255331       -7.0717178353        0.3150218669  MEMB      122             0.0000000000
     13663       122  POPE      H18R          -42.6038511926       -6.9663860361       -0.7403665702  MEMB      122             0.0000000000
     13664       122  POPE      H18S          -42.0355859441       -6.1023905333        0.8031832071  MEMB      122             0.0000000000
     13665       122  POPE      H18T          -43.0522130900       -7.4009570027        1.0354022449  MEMB      122             0.0000000000
     13666       122  POPE      C33           -43.6768963706       -7.0450337874       11.9628587707  MEMB      122             0.0000000000
     13667       122  POPE      H3X           -44.7072653052       -7.0047135938       11.5492947836  MEMB      122             0.0000000000
     13668       122  POPE      H3Y           -43.4562336741       -8.1115754226       12.1822165210  MEMB      122             0.0000000000
     13669       122  POPE      C34           -42.5302931069       -6.5249419141       11.0375285556  MEMB      122             0.0000000000
     13670       122  POPE      H4X           -42.3598996967       -7.1694706059       10.1487818932  MEMB      122             0.0000000000
     13671       122  POPE      H4Y           -41.6137437390       -6.4496973679       11.6609030576  MEMB      122             0.0000000000
     13672       122  POPE      C35           -42.7762176026       -5.1218677981       10.3881623937  MEMB      122             0.0000000000
     13673       122  POPE      H5X           -42.4426693272       -4.3617315227       11.1265795506  MEMB      122             0.0000000000
     13674       122  POPE      H5Y           -43.8373619574       -5.0723029282       10.0628363346  MEMB      122             0.0000000000
     13675       122  POPE      C36           -41.9208547943       -4.9002977993        9.1272776797  MEMB      122             0.0000000000
     13676       122  POPE      H6X           -40.9399029824       -5.3451351067        9.3996268889  MEMB      122             0.0000000000
     13677       122  POPE      H6Y           -41.7051289689       -3.8124081062        9.0618601441  MEMB      122             0.0000000000
     13678       122  POPE      C37           -42.2881523987       -5.3957120252        7.6964242909  MEMB      122             0.0000000000
     13679       122  POPE      H7X           -42.7231020169       -6.4155788861        7.6256346417  MEMB      122             0.0000000000
     13680       122  POPE      H7Y           -41.4046016222       -5.2358122327        7.0421381623  MEMB      122             0.0000000000
     13681       122  POPE      C38           -43.3013080858       -4.4269007316        7.0116679103  MEMB      122             0.0000000000
     13682       122  POPE      H8X           -42.9143569226       -3.3935147056        6.8824249665  MEMB      122             0.0000000000
     13683       122  POPE      H8Y           -44.2417344746       -4.3407214873        7.5968963764  MEMB      122             0.0000000000
     13684       122  POPE      C39           -43.5895868725       -4.9093732756        5.6620941066  MEMB      122             0.0000000000
     13685       122  POPE      H9X           -43.9534693145       -5.9497108764        5.8021235382  MEMB      122             0.0000000000
     13686       122  POPE      H9Y           -42.5588419370       -5.0129142005        5.2606405653  MEMB      122             0.0000000000
     13687       122  POPE      C310          -44.5829411065       -4.1320807373        4.8246888224  MEMB      122             0.0000000000
     13688       122  POPE      H10X          -44.3396514489       -3.0489787897        4.7797302802  MEMB      122             0.0000000000
     13689       122  POPE      H10Y          -45.5055889799       -4.1695059846        5.4424602140  MEMB      122             0.0000000000
     13690       122  POPE      C311          -44.8168227651       -4.4542103991        3.3249790167  MEMB      122             0.0000000000
     13691       122  POPE      H11X          -43.9774794947       -3.9320357547        2.8178714527  MEMB      122             0.0000000000
     13692       122  POPE      H11Y          -45.7769173245       -3.9003934467        3.2486476095  MEMB      122             0.0000000000
     13693       122  POPE      C312          -44.8750848808       -5.9008077067        2.8748808291  MEMB      122             0.0000000000
     13694       122  POPE      H12X          -43.8162528322       -6.1910647034        3.0450184008  MEMB      122             0.0000000000
     13695       122  POPE      H12Y          -45.0823222248       -6.0251001755        1.7904808700  MEMB      122             0.0000000000
     13696       122  POPE      C313          -45.7295016903       -6.8520711624        3.6410273647  MEMB      122             0.0000000000
     13697       122  POPE      H13X          -46.8051191934       -6.7302594248        3.3909680625  MEMB      122             0.0000000000
     13698       122  POPE      H13Y          -45.5735192708       -6.7323406755        4.7344876373  MEMB      122             0.0000000000
     13699       122  POPE      C314          -45.2787106422       -8.3183704244        3.3481418171  MEMB      122             0.0000000000
     13700       122  POPE      H14X          -45.8964884375       -8.9022604318        4.0635052120  MEMB      122             0.0000000000
     13701       122  POPE      H14Y          -44.2316964465       -8.5359564450        3.6493702394  MEMB      122             0.0000000000
     13702       122  POPE      C315          -45.6275747263       -8.8422460508        1.9315917340  MEMB      122             0.0000000000
     13703       122  POPE      H15X          -45.2963312630       -9.9024933270        1.9098048099  MEMB      122             0.0000000000
     13704       122  POPE      H15Y          -45.0152696895       -8.3078004422        1.1741142638  MEMB      122             0.0000000000
     13705       122  POPE      C316          -47.1505419921       -8.7244404066        1.4841340676  MEMB      122             0.0000000000
     13706       122  POPE      H16X          -47.6648334758       -9.2743111144        2.3011212891  MEMB      122             0.0000000000
     13707       122  POPE      H16Y          -47.3178643656       -9.3292011202        0.5672975700  MEMB      122             0.0000000000
     13708       122  POPE      H16Z          -47.5865416437       -7.7082396595        1.3766089754  MEMB      122             0.0000000000
     13709       123  POPE      N             -18.9734719272       50.3054566161       21.0888457374  MEMB      123             0.0000000000
     13710       123  POPE      HN1           -19.5905570481       50.1533802190       21.9120579022  MEMB      123             0.0000000000
     13711       123  POPE      HN2           -17.9480437741       50.3795442899       21.2457164919  MEMB      123             0.0000000000
     13712       123  POPE      HN3           -19.3211158119       51.0551002539       20.4573566719  MEMB      123             0.0000000000
     13713       123  POPE      C12           -19.1450970475       49.0617236679       20.3361571167  MEMB      123             0.0000000000
     13714       123  POPE      H12A          -20.2268940372       49.0333922560       20.0846939421  MEMB      123             0.0000000000
     13715       123  POPE      H12B          -18.8271951840       48.2442241220       21.0180323326  MEMB      123             0.0000000000
     13716       123  POPE      C11           -18.2882525472       48.9595191796       19.0684614372  MEMB      123             0.0000000000
     13717       123  POPE      H11A          -18.6707552444       49.6762379283       18.3106177688  MEMB      123             0.0000000000
     13718       123  POPE      H11B          -18.5415779452       47.9668195559       18.6387001849  MEMB      123             0.0000000000
     13719       123  POPE      P             -15.7267322734       48.9528938827       18.2972963840  MEMB      123             0.0000000000
     13720       123  POPE      O13           -14.5379070112       48.5287812077       19.0384733839  MEMB      123             0.0000000000
     13721       123  POPE      O14           -15.5330937703       50.1262917773       17.4047731605  MEMB      123             0.0000000000
     13722       123  POPE      O11           -16.3424652955       47.7143616016       17.4904298798  MEMB      123             0.0000000000
     13723       123  POPE      O12           -16.8732985349       49.3408520331       19.2755629033  MEMB      123             0.0000000000
     13724       123  POPE      C1            -15.4344345395       46.8609277934       16.7661938506  MEMB      123             0.0000000000
     13725       123  POPE      HA            -15.9851904052       45.9354747713       16.4932002657  MEMB      123             0.0000000000
     13726       123  POPE      HB            -14.4505376025       46.7005546278       17.2566510635  MEMB      123             0.0000000000
     13727       123  POPE      C2            -15.0906809422       47.5121059164       15.4157568421  MEMB      123             0.0000000000
     13728       123  POPE      HS            -14.3915354124       48.3446750418       15.6445475824  MEMB      123             0.0000000000
     13729       123  POPE      O21           -16.2223938978       48.1314075978       14.8553164691  MEMB      123             0.0000000000
     13730       123  POPE      C21           -16.0010065921       49.2613017413       14.2038192100  MEMB      123             0.0000000000
     13731       123  POPE      O22           -14.9050895465       49.7428776396       13.9401241280  MEMB      123             0.0000000000
     13732       123  POPE      C22           -17.3433364509       49.9122519586       13.8421063530  MEMB      123             0.0000000000
     13733       123  POPE      H2R           -17.4725727700       50.0821302750       12.7518038142  MEMB      123             0.0000000000
     13734       123  POPE      H2S           -17.2432129949       50.9556035752       14.2104998022  MEMB      123             0.0000000000
     13735       123  POPE      C3            -14.5773603713       46.4847429084       14.3547506999  MEMB      123             0.0000000000
     13736       123  POPE      HX            -13.8384729124       45.8376411883       14.8740060328  MEMB      123             0.0000000000
     13737       123  POPE      HY            -14.0749885664       46.9541944186       13.4820771208  MEMB      123             0.0000000000
     13738       123  POPE      O31           -15.6852518010       45.6891994151       13.8697579004  MEMB      123             0.0000000000
     13739       123  POPE      C31           -15.9749415533       45.7816629538       12.5883262778  MEMB      123             0.0000000000
     13740       123  POPE      O32           -15.7190069083       46.6695533262       11.7971506728  MEMB      123             0.0000000000
     13741       123  POPE      C32           -16.9037017053       44.6186152409       12.1883336610  MEMB      123             0.0000000000
     13742       123  POPE      H2X           -17.7471253332       44.5964760910       12.9111527312  MEMB      123             0.0000000000
     13743       123  POPE      H2Y           -16.4160391696       43.6371701494       12.3707390924  MEMB      123             0.0000000000
     13744       123  POPE      C23           -18.5673328524       49.1508387621       14.3519651105  MEMB      123             0.0000000000
     13745       123  POPE      H3R           -18.5303005896       48.9684239291       15.4472616925  MEMB      123             0.0000000000
     13746       123  POPE      H3S           -18.6571347027       48.1304754779       13.9217148975  MEMB      123             0.0000000000
     13747       123  POPE      C24           -19.9183121380       49.8313931889       14.0123647061  MEMB      123             0.0000000000
     13748       123  POPE      H4R           -19.5964799929       50.8893974828       14.1190049027  MEMB      123             0.0000000000
     13749       123  POPE      H4S           -20.6602283590       49.5901869744       14.8033773211  MEMB      123             0.0000000000
     13750       123  POPE      C25           -20.5133951188       49.6396837437       12.5694963428  MEMB      123             0.0000000000
     13751       123  POPE      H5R           -19.6815006689       50.0873401604       11.9847947318  MEMB      123             0.0000000000
     13752       123  POPE      H5S           -21.4201274741       50.2759392749       12.4838404804  MEMB      123             0.0000000000
     13753       123  POPE      C26           -20.9251260757       48.1799586778       12.2384496218  MEMB      123             0.0000000000
     13754       123  POPE      H6R           -21.5235636871       47.8009739693       13.0943498607  MEMB      123             0.0000000000
     13755       123  POPE      H6S           -20.0584691453       47.4891225491       12.1611729298  MEMB      123             0.0000000000
     13756       123  POPE      C27           -21.6107700927       48.0646768751       10.9011943283  MEMB      123             0.0000000000
     13757       123  POPE      H7R           -22.3341502975       48.8996893652       10.7837392605  MEMB      123             0.0000000000
     13758       123  POPE      H7S           -22.2656355602       47.1671964685       10.9004791187  MEMB      123             0.0000000000
     13759       123  POPE      C28           -20.5681026053       48.0214492089        9.7607755789  MEMB      123             0.0000000000
     13760       123  POPE      H8R           -20.8721759765       47.3024531468        8.9702663484  MEMB      123             0.0000000000
     13761       123  POPE      H8S           -19.6064360602       47.6225262857       10.1485631713  MEMB      123             0.0000000000
     13762       123  POPE      C29           -20.4780622567       49.4256926527        9.2139092349  MEMB      123             0.0000000000
     13763       123  POPE      H91           -21.4439796457       49.9513310121        9.2405275539  MEMB      123             0.0000000000
     13764       123  POPE      C210          -19.5191472704       49.9997678071        8.5192757725  MEMB      123             0.0000000000
     13765       123  POPE      H101          -19.7805015603       51.0234329691        8.2130014354  MEMB      123             0.0000000000
     13766       123  POPE      C211          -18.1768856455       49.4926742284        8.0234230731  MEMB      123             0.0000000000
     13767       123  POPE      H11R          -17.9706295234       48.6417539022        8.7073193951  MEMB      123             0.0000000000
     13768       123  POPE      H11S          -17.3864618275       50.2422158392        8.2419137066  MEMB      123             0.0000000000
     13769       123  POPE      C212          -18.1045805130       49.2137414653        6.5078928183  MEMB      123             0.0000000000
     13770       123  POPE      H12R          -17.0642285047       48.9039561076        6.2712032917  MEMB      123             0.0000000000
     13771       123  POPE      H12S          -18.1761344952       50.0855007459        5.8228842258  MEMB      123             0.0000000000
     13772       123  POPE      C213          -18.9769938673       48.0486033620        5.9058565091  MEMB      123             0.0000000000
     13773       123  POPE      H13R          -20.0547316983       48.0876030009        6.1728421808  MEMB      123             0.0000000000
     13774       123  POPE      H13S          -18.6408431514       47.1189829429        6.4129356733  MEMB      123             0.0000000000
     13775       123  POPE      C214          -18.9575024933       47.9032706183        4.3788519743  MEMB      123             0.0000000000
     13776       123  POPE      H14R          -18.6029244075       48.8644448646        3.9490393727  MEMB      123             0.0000000000
     13777       123  POPE      H14S          -19.9421595239       47.6203421795        3.9490577093  MEMB      123             0.0000000000
     13778       123  POPE      C215          -18.0760669538       46.7755604602        3.8923692565  MEMB      123             0.0000000000
     13779       123  POPE      H15R          -18.3405184005       45.8015042847        4.3566978998  MEMB      123             0.0000000000
     13780       123  POPE      H15S          -17.0406690769       47.0424498411        4.1941020289  MEMB      123             0.0000000000
     13781       123  POPE      C216          -18.0863912458       46.4510216310        2.4128122374  MEMB      123             0.0000000000
     13782       123  POPE      H16R          -19.0502432675       46.4488044989        1.8602672855  MEMB      123             0.0000000000
     13783       123  POPE      H16S          -17.6354486000       45.4363708042        2.3746605544  MEMB      123             0.0000000000
     13784       123  POPE      C217          -17.1792749097       47.4552768462        1.5790679125  MEMB      123             0.0000000000
     13785       123  POPE      H17R          -16.1133766739       47.3448519570        1.8723053008  MEMB      123             0.0000000000
     13786       123  POPE      H17S          -17.5251447282       48.4727366846        1.8609726836  MEMB      123             0.0000000000
     13787       123  POPE      C218          -17.4031023228       47.3265158442        0.0982461763  MEMB      123             0.0000000000
     13788       123  POPE      H18R          -16.9659179119       46.4292681826       -0.3897473902  MEMB      123             0.0000000000
     13789       123  POPE      H18S          -17.0450955107       48.2828973993       -0.3393445270  MEMB      123             0.0000000000
     13790       123  POPE      H18T          -18.4976837583       47.3142756185       -0.0916542158  MEMB      123             0.0000000000
     13791       123  POPE      C33           -17.3728011884       44.7467421640       10.7087227435  MEMB      123             0.0000000000
     13792       123  POPE      H3X           -17.8058634005       45.7578645221       10.5524875286  MEMB      123             0.0000000000
     13793       123  POPE      H3Y           -18.1764986605       44.0045217306       10.5150743476  MEMB      123             0.0000000000
     13794       123  POPE      C34           -16.3147264828       44.5249498907        9.5868562164  MEMB      123             0.0000000000
     13795       123  POPE      H4X           -15.4871374956       45.2257227783        9.8283819958  MEMB      123             0.0000000000
     13796       123  POPE      H4Y           -16.7737211308       44.8789153344        8.6390413018  MEMB      123             0.0000000000
     13797       123  POPE      C35           -15.8961833119       43.0823060083        9.4167192562  MEMB      123             0.0000000000
     13798       123  POPE      H5X           -16.6858421780       42.4726360349        8.9277795230  MEMB      123             0.0000000000
     13799       123  POPE      H5Y           -15.7858895887       42.6179715058       10.4199894745  MEMB      123             0.0000000000
     13800       123  POPE      C36           -14.6367631561       43.0391788653        8.5928495727  MEMB      123             0.0000000000
     13801       123  POPE      H6X           -14.3874246635       41.9585448220        8.5266557384  MEMB      123             0.0000000000
     13802       123  POPE      H6Y           -13.8600384129       43.4005963819        9.3002368462  MEMB      123             0.0000000000
     13803       123  POPE      C37           -14.4970521431       43.7714745050        7.1931631580  MEMB      123             0.0000000000
     13804       123  POPE      H7X           -13.4893683371       43.5597654898        6.7759410111  MEMB      123             0.0000000000
     13805       123  POPE      H7Y           -14.6174574582       44.8561579069        7.4012142404  MEMB      123             0.0000000000
     13806       123  POPE      C38           -15.6658089679       43.3726734776        6.2747834397  MEMB      123             0.0000000000
     13807       123  POPE      H8X           -16.6492713601       43.6638036002        6.7018269095  MEMB      123             0.0000000000
     13808       123  POPE      H8Y           -15.6242151368       42.2627801191        6.3017483640  MEMB      123             0.0000000000
     13809       123  POPE      C39           -15.6189774415       43.8057433211        4.7855856348  MEMB      123             0.0000000000
     13810       123  POPE      H9X           -15.7333940758       44.9106546967        4.7655662574  MEMB      123             0.0000000000
     13811       123  POPE      H9Y           -16.6081757167       43.4732592267        4.4044526249  MEMB      123             0.0000000000
     13812       123  POPE      C310          -14.4259112294       43.2845166412        3.9968944353  MEMB      123             0.0000000000
     13813       123  POPE      H10X          -14.5116259918       42.1981863105        3.7804225350  MEMB      123             0.0000000000
     13814       123  POPE      H10Y          -13.4648938765       43.6913870518        4.3779770974  MEMB      123             0.0000000000
     13815       123  POPE      C311          -14.4462752289       43.8023424896        2.5020342433  MEMB      123             0.0000000000
     13816       123  POPE      H11X          -13.4272446419       43.7107359325        2.0690136253  MEMB      123             0.0000000000
     13817       123  POPE      H11Y          -14.7588795527       44.8661932543        2.4326011744  MEMB      123             0.0000000000
     13818       123  POPE      C312          -15.3347137467       42.9058322323        1.6211969187  MEMB      123             0.0000000000
     13819       123  POPE      H12X          -16.3236417957       42.8793054311        2.1268039698  MEMB      123             0.0000000000
     13820       123  POPE      H12Y          -14.8513765698       41.9054883646        1.6254809320  MEMB      123             0.0000000000
     13821       123  POPE      C313          -15.4687483792       43.3941184457        0.1923657160  MEMB      123             0.0000000000
     13822       123  POPE      H13X          -14.4815696327       43.6715116177       -0.2352470651  MEMB      123             0.0000000000
     13823       123  POPE      H13Y          -16.1866361391       44.2385620333        0.1157289080  MEMB      123             0.0000000000
     13824       123  POPE      C314          -15.9459332941       42.2429349071       -0.6990458450  MEMB      123             0.0000000000
     13825       123  POPE      H14X          -15.2432528054       41.3825291727       -0.7152852064  MEMB      123             0.0000000000
     13826       123  POPE      H14Y          -16.2707908371       42.6647212589       -1.6741787134  MEMB      123             0.0000000000
     13827       123  POPE      C315          -17.1929990588       41.5195593572       -0.2158060985  MEMB      123             0.0000000000
     13828       123  POPE      H15X          -18.0482500542       42.1219474208       -0.5899657428  MEMB      123             0.0000000000
     13829       123  POPE      H15Y          -17.2592993885       41.2445838991        0.8585833796  MEMB      123             0.0000000000
     13830       123  POPE      C316          -17.2945813609       40.3190509665       -1.0734712244  MEMB      123             0.0000000000
     13831       123  POPE      H16X          -16.4028278630       39.6612527464       -0.9934806392  MEMB      123             0.0000000000
     13832       123  POPE      H16Y          -17.3303976023       40.6264349721       -2.1405024646  MEMB      123             0.0000000000
     13833       123  POPE      H16Z          -18.1758975529       39.6522883149       -0.9593214547  MEMB      123             0.0000000000
     13834       124  POPE      N             -12.8600723320       44.7468242913       17.9289095007  MEMB      124             0.0000000000
     13835       124  POPE      HN1           -13.0244179455       43.7430610857       17.7120000009  MEMB      124             0.0000000000
     13836       124  POPE      HN2           -13.6172359635       45.0544761559       18.5720685111  MEMB      124             0.0000000000
     13837       124  POPE      HN3           -12.8062459373       45.2806179014       17.0379734456  MEMB      124             0.0000000000
     13838       124  POPE      C12           -11.4736708334       44.9594634269       18.4925084014  MEMB      124             0.0000000000
     13839       124  POPE      H12A          -11.5782384030       46.0144773858       18.8246710351  MEMB      124             0.0000000000
     13840       124  POPE      H12B          -10.7274985523       45.1023721672       17.6818758814  MEMB      124             0.0000000000
     13841       124  POPE      C11           -11.0574309319       43.9809048477       19.6138981610  MEMB      124             0.0000000000
     13842       124  POPE      H11A          -11.1792383744       42.9195851118       19.3088008656  MEMB      124             0.0000000000
     13843       124  POPE      H11B          -11.7323020118       44.0159211733       20.4957393169  MEMB      124             0.0000000000
     13844       124  POPE      P              -8.4434145608       43.4999799341       19.2486064080  MEMB      124             0.0000000000
     13845       124  POPE      O13            -8.5582785039       42.0138213188       19.3517720310  MEMB      124             0.0000000000
     13846       124  POPE      O14            -7.1890754728       44.1311487861       19.7115811063  MEMB      124             0.0000000000
     13847       124  POPE      O11            -8.6051620433       43.7986704352       17.6870195837  MEMB      124             0.0000000000
     13848       124  POPE      O12            -9.7098545521       44.2632773225       19.9657048080  MEMB      124             0.0000000000
     13849       124  POPE      C1             -7.4416485687       43.7802086894       16.8450002278  MEMB      124             0.0000000000
     13850       124  POPE      HA             -6.8795165838       42.8461815185       17.0592936162  MEMB      124             0.0000000000
     13851       124  POPE      HB             -6.7118835928       44.5765733521       17.1049375989  MEMB      124             0.0000000000
     13852       124  POPE      C2             -7.7396230878       43.9105374134       15.3980910888  MEMB      124             0.0000000000
     13853       124  POPE      HS             -6.7773831037       43.7972112542       14.8544252024  MEMB      124             0.0000000000
     13854       124  POPE      O21            -8.4394655352       45.0624974043       14.9378893393  MEMB      124             0.0000000000
     13855       124  POPE      C21            -7.8756422399       46.2668519771       14.9137514944  MEMB      124             0.0000000000
     13856       124  POPE      O22            -6.7667554890       46.5748791451       15.1995563271  MEMB      124             0.0000000000
     13857       124  POPE      C22            -9.0617595852       47.1673746647       14.4914970288  MEMB      124             0.0000000000
     13858       124  POPE      H2R            -9.2289400923       47.9425848824       15.2695849369  MEMB      124             0.0000000000
     13859       124  POPE      H2S           -10.0330248519       46.6312547605       14.4319960894  MEMB      124             0.0000000000
     13860       124  POPE      C3             -8.5350057086       42.6262513514       15.1007131128  MEMB      124             0.0000000000
     13861       124  POPE      HX             -9.3406939355       42.4501513640       15.8451433125  MEMB      124             0.0000000000
     13862       124  POPE      HY             -7.9286994462       41.7175212352       15.3030085636  MEMB      124             0.0000000000
     13863       124  POPE      O31            -9.0550834673       42.6016510857       13.7751450944  MEMB      124             0.0000000000
     13864       124  POPE      C31           -10.3279959712       43.0134535523       13.6440751173  MEMB      124             0.0000000000
     13865       124  POPE      O32           -11.0405434363       43.3647455255       14.5711577348  MEMB      124             0.0000000000
     13866       124  POPE      C32           -10.5504851067       43.0136442396       12.1481926760  MEMB      124             0.0000000000
     13867       124  POPE      H2X           -10.6729043546       41.9478284204       11.8594517311  MEMB      124             0.0000000000
     13868       124  POPE      H2Y            -9.7688371193       43.5644951291       11.5825863228  MEMB      124             0.0000000000
     13869       124  POPE      C23            -8.8600504942       47.9074827046       13.1633823393  MEMB      124             0.0000000000
     13870       124  POPE      H3R            -7.9733345508       48.5765655807       13.1829835273  MEMB      124             0.0000000000
     13871       124  POPE      H3S            -9.7665448810       48.5190763047       12.9670598862  MEMB      124             0.0000000000
     13872       124  POPE      C24            -8.7144390678       47.0279834094       11.9503321235  MEMB      124             0.0000000000
     13873       124  POPE      H4R            -9.5670206972       46.3236080758       11.8441197454  MEMB      124             0.0000000000
     13874       124  POPE      H4S            -7.8659174378       46.3515641563       12.1886368378  MEMB      124             0.0000000000
     13875       124  POPE      C25            -8.5486826380       47.7304150245       10.5601747841  MEMB      124             0.0000000000
     13876       124  POPE      H5R            -7.6542856271       48.3475976185       10.7913909290  MEMB      124             0.0000000000
     13877       124  POPE      H5S            -9.4039231959       48.4372817572       10.6169541539  MEMB      124             0.0000000000
     13878       124  POPE      C26            -8.3067473163       46.8337637646        9.3639423345  MEMB      124             0.0000000000
     13879       124  POPE      H6R            -7.7796773320       45.9398952009        9.7608272398  MEMB      124             0.0000000000
     13880       124  POPE      H6S            -7.6431082041       47.2343272944        8.5680453664  MEMB      124             0.0000000000
     13881       124  POPE      C27            -9.6635383050       46.3109376611        8.6456128885  MEMB      124             0.0000000000
     13882       124  POPE      H7R           -10.2885460115       47.2101452130        8.4582324557  MEMB      124             0.0000000000
     13883       124  POPE      H7S           -10.2004348201       45.7367922899        9.4307373156  MEMB      124             0.0000000000
     13884       124  POPE      C28            -9.5076030094       45.5591937098        7.2577974506  MEMB      124             0.0000000000
     13885       124  POPE      H8R            -9.0892650526       46.1684381395        6.4282582369  MEMB      124             0.0000000000
     13886       124  POPE      H8S           -10.5386345174       45.2655157084        6.9661664857  MEMB      124             0.0000000000
     13887       124  POPE      C29            -8.6253148538       44.3102349855        7.4799231392  MEMB      124             0.0000000000
     13888       124  POPE      H91            -7.6292050768       44.4038837191        7.9370831973  MEMB      124             0.0000000000
     13889       124  POPE      C210           -8.8804808857       43.0638996016        7.2009211581  MEMB      124             0.0000000000
     13890       124  POPE      H101           -8.1049704625       42.3091766065        7.3983466974  MEMB      124             0.0000000000
     13891       124  POPE      C211          -10.0621812793       42.3735631344        6.5891839856  MEMB      124             0.0000000000
     13892       124  POPE      H11R          -11.0279975234       42.9174059193        6.6650439852  MEMB      124             0.0000000000
     13893       124  POPE      H11S          -10.4058227964       41.5441125975        7.2435871437  MEMB      124             0.0000000000
     13894       124  POPE      C212           -9.8401861094       41.9981313370        5.1553372105  MEMB      124             0.0000000000
     13895       124  POPE      H12R          -10.6099093245       41.2391939597        4.8987038300  MEMB      124             0.0000000000
     13896       124  POPE      H12S           -8.8363637563       41.5222557268        5.1696333032  MEMB      124             0.0000000000
     13897       124  POPE      C213           -9.7708587156       43.2178656558        4.2039775533  MEMB      124             0.0000000000
     13898       124  POPE      H13R           -8.9232919903       43.8944238178        4.4452660657  MEMB      124             0.0000000000
     13899       124  POPE      H13S          -10.6901567543       43.8391871299        4.2603001813  MEMB      124             0.0000000000
     13900       124  POPE      C214           -9.5156279877       42.7862926920        2.7204224484  MEMB      124             0.0000000000
     13901       124  POPE      H14R          -10.2130754196       41.9757767938        2.4188395025  MEMB      124             0.0000000000
     13902       124  POPE      H14S           -8.5159258492       42.3538004042        2.5016365915  MEMB      124             0.0000000000
     13903       124  POPE      C215           -9.7809794060       43.8828362747        1.7556932713  MEMB      124             0.0000000000
     13904       124  POPE      H15R          -10.8458973051       44.1961779279        1.8013879085  MEMB      124             0.0000000000
     13905       124  POPE      H15S           -9.6982838561       43.6861657856        0.6653705467  MEMB      124             0.0000000000
     13906       124  POPE      C216           -9.0707311671       45.2260570560        2.0493944839  MEMB      124             0.0000000000
     13907       124  POPE      H16R           -8.3747956156       45.3811641568        1.1973748186  MEMB      124             0.0000000000
     13908       124  POPE      H16S           -8.5338795244       45.1242186727        3.0167309889  MEMB      124             0.0000000000
     13909       124  POPE      C217           -9.8998746796       46.4278504758        1.9399412173  MEMB      124             0.0000000000
     13910       124  POPE      H17R          -10.3198405895       46.4344467897        0.9113960260  MEMB      124             0.0000000000
     13911       124  POPE      H17S           -9.2756713118       47.3320640810        2.1045297176  MEMB      124             0.0000000000
     13912       124  POPE      C218          -11.0914017145       46.4897909690        2.9283730044  MEMB      124             0.0000000000
     13913       124  POPE      H18R          -11.7340388850       45.5898195827        2.8216491441  MEMB      124             0.0000000000
     13914       124  POPE      H18S          -11.6832344644       47.4138068028        2.7544474797  MEMB      124             0.0000000000
     13915       124  POPE      H18T          -10.7626091227       46.4472088317        3.9887526067  MEMB      124             0.0000000000
     13916       124  POPE      C33           -11.9571137902       43.6768815545       11.8384916342  MEMB      124             0.0000000000
     13917       124  POPE      H3X           -11.9543525376       44.7662311929       12.0567362321  MEMB      124             0.0000000000
     13918       124  POPE      H3Y           -12.7284536985       43.1841487758       12.4682298907  MEMB      124             0.0000000000
     13919       124  POPE      C34           -12.2911318217       43.4907520288       10.3716182247  MEMB      124             0.0000000000
     13920       124  POPE      H4X           -12.1446170315       42.3916775461       10.3016917165  MEMB      124             0.0000000000
     13921       124  POPE      H4Y           -11.4549545992       43.9667942351        9.8161797718  MEMB      124             0.0000000000
     13922       124  POPE      C35           -13.7238889214       43.8366860426        9.9625664402  MEMB      124             0.0000000000
     13923       124  POPE      H5X           -13.8975963812       44.8999648098       10.2338317997  MEMB      124             0.0000000000
     13924       124  POPE      H5Y           -14.4850842732       43.1736975033       10.4266231298  MEMB      124             0.0000000000
     13925       124  POPE      C36           -14.0073499689       43.7226614439        8.3464230814  MEMB      124             0.0000000000
     13926       124  POPE      H6X           -13.2140301262       44.3737077875        7.9208611289  MEMB      124             0.0000000000
     13927       124  POPE      H6Y           -15.0503186603       44.0610250695        8.1674058503  MEMB      124             0.0000000000
     13928       124  POPE      C37           -13.7430571885       42.2931042676        7.7632503615  MEMB      124             0.0000000000
     13929       124  POPE      H7X           -14.5514926096       41.7677833290        8.3153294922  MEMB      124             0.0000000000
     13930       124  POPE      H7Y           -12.7770938330       41.7967625172        7.9975162755  MEMB      124             0.0000000000
     13931       124  POPE      C38           -14.0791070114       42.3621331690        6.2726933244  MEMB      124             0.0000000000
     13932       124  POPE      H8X           -13.3793670040       43.1360416100        5.8909204690  MEMB      124             0.0000000000
     13933       124  POPE      H8Y           -15.1480741815       42.5576596397        6.0416094601  MEMB      124             0.0000000000
     13934       124  POPE      C39           -13.8038451682       40.9859522165        5.5268017493  MEMB      124             0.0000000000
     13935       124  POPE      H9X           -14.3017652202       40.1015244853        5.9786699334  MEMB      124             0.0000000000
     13936       124  POPE      H9Y           -12.7198314518       40.7928838471        5.3786125806  MEMB      124             0.0000000000
     13937       124  POPE      C310          -14.3142597734       41.0848241541        4.0740000869  MEMB      124             0.0000000000
     13938       124  POPE      H10X          -15.3526258179       41.4710983018        3.9908802839  MEMB      124             0.0000000000
     13939       124  POPE      H10Y          -14.3104036740       40.0471692531        3.6770382441  MEMB      124             0.0000000000
     13940       124  POPE      C311          -13.4032292387       41.8244346789        2.9887932912  MEMB      124             0.0000000000
     13941       124  POPE      H11X          -12.4543523906       41.2489311555        2.9363635737  MEMB      124             0.0000000000
     13942       124  POPE      H11Y          -13.0364174071       42.7498203478        3.4821806658  MEMB      124             0.0000000000
     13943       124  POPE      C312          -14.0406910453       42.1767540749        1.6415611315  MEMB      124             0.0000000000
     13944       124  POPE      H12X          -14.0678359721       41.1736610074        1.1647075799  MEMB      124             0.0000000000
     13945       124  POPE      H12Y          -13.2795657989       42.7889785440        1.1122307287  MEMB      124             0.0000000000
     13946       124  POPE      C313          -15.3569599915       42.9951529760        1.6021796784  MEMB      124             0.0000000000
     13947       124  POPE      H13X          -16.0228066292       42.3705833114        2.2353317876  MEMB      124             0.0000000000
     13948       124  POPE      H13Y          -15.6326493981       43.0521056231        0.5274366580  MEMB      124             0.0000000000
     13949       124  POPE      C314          -15.2832543442       44.3174134243        2.3110946060  MEMB      124             0.0000000000
     13950       124  POPE      H14X          -14.7519056065       44.3368184022        3.2866011815  MEMB      124             0.0000000000
     13951       124  POPE      H14Y          -16.2932275478       44.6764828548        2.6032323161  MEMB      124             0.0000000000
     13952       124  POPE      C315          -14.7054799942       45.4899816979        1.4264005981  MEMB      124             0.0000000000
     13953       124  POPE      H15X          -15.3886871616       45.6291917966        0.5614329806  MEMB      124             0.0000000000
     13954       124  POPE      H15Y          -13.6824575684       45.2384057425        1.0736181717  MEMB      124             0.0000000000
     13955       124  POPE      C316          -14.7568615004       46.8862186124        2.1533674680  MEMB      124             0.0000000000
     13956       124  POPE      H16X          -14.3156619891       46.7266742615        3.1604457163  MEMB      124             0.0000000000
     13957       124  POPE      H16Y          -15.8057224870       47.2486650599        2.2067019785  MEMB      124             0.0000000000
     13958       124  POPE      H16Z          -14.2263648821       47.6667402688        1.5671253901  MEMB      124             0.0000000000
     13959       125  POPE      N             -40.0396300773      -22.7708600613       20.0740094871  MEMB      125             0.0000000000
     13960       125  POPE      HN1           -40.3662626302      -23.0838987631       19.1375705151  MEMB      125             0.0000000000
     13961       125  POPE      HN2           -39.2695373192      -23.3172420257       20.5099268732  MEMB      125             0.0000000000
     13962       125  POPE      HN3           -40.8366804024      -22.8324325595       20.7392310512  MEMB      125             0.0000000000
     13963       125  POPE      C12           -39.7971193348      -21.2052826172       20.0959896392  MEMB      125             0.0000000000
     13964       125  POPE      H12A          -38.9962083073      -21.1359569202       20.8628380839  MEMB      125             0.0000000000
     13965       125  POPE      H12B          -40.7986427478      -20.8024424457       20.3586519485  MEMB      125             0.0000000000
     13966       125  POPE      C11           -39.3979415040      -20.5029479655       18.7170746298  MEMB      125             0.0000000000
     13967       125  POPE      H11A          -39.1682698854      -19.4607388778       19.0258981933  MEMB      125             0.0000000000
     13968       125  POPE      H11B          -40.2507116209      -20.5334520589       18.0056157791  MEMB      125             0.0000000000
     13969       125  POPE      P             -36.8347176593      -20.8733207514       18.6873725886  MEMB      125             0.0000000000
     13970       125  POPE      O13           -36.6605151825      -21.3619549030       20.0734285313  MEMB      125             0.0000000000
     13971       125  POPE      O14           -36.5358962455      -19.4161501751       18.3991455336  MEMB      125             0.0000000000
     13972       125  POPE      O11           -35.8674926888      -21.7748917081       17.8059410101  MEMB      125             0.0000000000
     13973       125  POPE      O12           -38.2678536997      -21.2627909979       18.1470385839  MEMB      125             0.0000000000
     13974       125  POPE      C1            -36.1564242245      -23.1685081272       17.5608511223  MEMB      125             0.0000000000
     13975       125  POPE      HA            -36.5177470176      -23.7842075997       18.4121331078  MEMB      125             0.0000000000
     13976       125  POPE      HB            -35.1255746079      -23.5383005517       17.3739718021  MEMB      125             0.0000000000
     13977       125  POPE      C2            -36.8474719416      -23.5344932511       16.1539734071  MEMB      125             0.0000000000
     13978       125  POPE      HS            -36.3182325886      -24.3807346789       15.6660162589  MEMB      125             0.0000000000
     13979       125  POPE      O21           -36.5917394918      -22.4774029340       15.2816365454  MEMB      125             0.0000000000
     13980       125  POPE      C21           -35.3600821186      -22.1719216653       15.0324865729  MEMB      125             0.0000000000
     13981       125  POPE      O22           -34.4274511451      -22.9085077424       15.3306816441  MEMB      125             0.0000000000
     13982       125  POPE      C22           -35.2246581679      -20.8031987485       14.3916935452  MEMB      125             0.0000000000
     13983       125  POPE      H2R           -34.5139868433      -20.1997537846       14.9959464416  MEMB      125             0.0000000000
     13984       125  POPE      H2S           -36.0749036871      -20.0897727917       14.4409571356  MEMB      125             0.0000000000
     13985       125  POPE      C3            -38.3848260137      -23.8007710367       16.2820409403  MEMB      125             0.0000000000
     13986       125  POPE      HX            -38.8676046550      -22.8533637904       16.6040119626  MEMB      125             0.0000000000
     13987       125  POPE      HY            -38.6199191719      -24.5871524727       17.0308110118  MEMB      125             0.0000000000
     13988       125  POPE      O31           -39.0336917310      -24.2055097577       15.0650311223  MEMB      125             0.0000000000
     13989       125  POPE      C31           -39.5513678205      -23.3059805485       14.2891311674  MEMB      125             0.0000000000
     13990       125  POPE      O32           -39.5057335868      -22.1144597324       14.4259953192  MEMB      125             0.0000000000
     13991       125  POPE      C32           -40.4335762282      -23.9533510952       13.1607330007  MEMB      125             0.0000000000
     13992       125  POPE      H2X           -41.2253271164      -24.5141325090       13.7020052256  MEMB      125             0.0000000000
     13993       125  POPE      H2Y           -39.7123050248      -24.7087909790       12.7820519240  MEMB      125             0.0000000000
     13994       125  POPE      C23           -34.6015421815      -20.8783709287       12.9951500670  MEMB      125             0.0000000000
     13995       125  POPE      H3R           -33.7589715698      -21.6024915280       12.9884497277  MEMB      125             0.0000000000
     13996       125  POPE      H3S           -34.0784367837      -19.9198466151       12.7904234954  MEMB      125             0.0000000000
     13997       125  POPE      C24           -35.5930257366      -21.3211781995       11.8445835171  MEMB      125             0.0000000000
     13998       125  POPE      H4R           -35.6020658219      -22.4307615763       11.7892275309  MEMB      125             0.0000000000
     13999       125  POPE      H4S           -35.1959831237      -20.9699918517       10.8681891637  MEMB      125             0.0000000000
     14000       125  POPE      C25           -37.0722302688      -20.9150497750       11.9366523333  MEMB      125             0.0000000000
     14001       125  POPE      H5R           -37.2830232731      -20.2779416394       12.8220792837  MEMB      125             0.0000000000
     14002       125  POPE      H5S           -37.6745420656      -21.8211012340       12.1616241651  MEMB      125             0.0000000000
     14003       125  POPE      C26           -37.5320682048      -20.2271870153       10.6028813940  MEMB      125             0.0000000000
     14004       125  POPE      H6R           -37.1542622586      -20.8690307107        9.7784899636  MEMB      125             0.0000000000
     14005       125  POPE      H6S           -36.9355494640      -19.2911363048       10.5549677899  MEMB      125             0.0000000000
     14006       125  POPE      C27           -39.0117607127      -19.9688028465       10.4300825571  MEMB      125             0.0000000000
     14007       125  POPE      H7R           -39.2919323786      -19.7097172292       11.4734904798  MEMB      125             0.0000000000
     14008       125  POPE      H7S           -39.6594941845      -20.8135337432       10.1119753140  MEMB      125             0.0000000000
     14009       125  POPE      C28           -39.2367406341      -18.7185880565        9.5930834834  MEMB      125             0.0000000000
     14010       125  POPE      H8R           -38.5530376680      -18.8228167627        8.7235966283  MEMB      125             0.0000000000
     14011       125  POPE      H8S           -39.0816415726      -17.8590489146       10.2797109196  MEMB      125             0.0000000000
     14012       125  POPE      C29           -40.6286296907      -18.6282245923        9.1774668621  MEMB      125             0.0000000000
     14013       125  POPE      H91           -41.3525992303      -19.0890385325        9.8655942493  MEMB      125             0.0000000000
     14014       125  POPE      C210          -40.9853732649      -18.3159640795        7.9555743481  MEMB      125             0.0000000000
     14015       125  POPE      H101          -42.0515967656      -18.4910625619        7.7493996121  MEMB      125             0.0000000000
     14016       125  POPE      C211          -40.0601297030      -17.9799157162        6.8156995129  MEMB      125             0.0000000000
     14017       125  POPE      H11R          -39.0907873528      -17.5424713175        7.1371634622  MEMB      125             0.0000000000
     14018       125  POPE      H11S          -40.5368838905      -17.2182209600        6.1623636446  MEMB      125             0.0000000000
     14019       125  POPE      C212          -39.7615483694      -19.1113024065        5.8103973611  MEMB      125             0.0000000000
     14020       125  POPE      H12R          -39.3711994648      -19.9585445623        6.4138292810  MEMB      125             0.0000000000
     14021       125  POPE      H12S          -39.0304791804      -18.7672432188        5.0478474940  MEMB      125             0.0000000000
     14022       125  POPE      C213          -41.0607307269      -19.4657298715        5.0590856431  MEMB      125             0.0000000000
     14023       125  POPE      H13R          -41.3795201380      -18.6510169112        4.3742958467  MEMB      125             0.0000000000
     14024       125  POPE      H13S          -41.9146046254      -19.7285793513        5.7194876820  MEMB      125             0.0000000000
     14025       125  POPE      C214          -40.8845463816      -20.6269091150        4.1381219937  MEMB      125             0.0000000000
     14026       125  POPE      H14R          -40.4906419484      -21.4215414459        4.8072404890  MEMB      125             0.0000000000
     14027       125  POPE      H14S          -40.0296828456      -20.4762340680        3.4447062019  MEMB      125             0.0000000000
     14028       125  POPE      C215          -42.1527267772      -21.0601630577        3.4040309441  MEMB      125             0.0000000000
     14029       125  POPE      H15R          -42.7384972277      -21.4155005567        4.2786335299  MEMB      125             0.0000000000
     14030       125  POPE      H15S          -41.9709531789      -22.0057575109        2.8498382830  MEMB      125             0.0000000000
     14031       125  POPE      C216          -42.9800171975      -20.0226593604        2.6025509502  MEMB      125             0.0000000000
     14032       125  POPE      H16R          -42.3756919836      -19.5899056928        1.7768173323  MEMB      125             0.0000000000
     14033       125  POPE      H16S          -43.3809467913      -19.2410766505        3.2827749470  MEMB      125             0.0000000000
     14034       125  POPE      C217          -44.0698185726      -20.7164243511        1.8107048623  MEMB      125             0.0000000000
     14035       125  POPE      H17R          -44.6922100433      -21.2893386796        2.5309266114  MEMB      125             0.0000000000
     14036       125  POPE      H17S          -43.6795074542      -21.5686864846        1.2143605337  MEMB      125             0.0000000000
     14037       125  POPE      C218          -44.9603523890      -19.7925147269        1.0529228819  MEMB      125             0.0000000000
     14038       125  POPE      H18R          -45.8952379327      -20.3345820289        0.7950988948  MEMB      125             0.0000000000
     14039       125  POPE      H18S          -44.3977396158      -19.6054370840        0.1133530510  MEMB      125             0.0000000000
     14040       125  POPE      H18T          -45.1406382232      -18.9199625910        1.7166019658  MEMB      125             0.0000000000
     14041       125  POPE      C33           -41.0393525250      -22.9724082339       12.0861975119  MEMB      125             0.0000000000
     14042       125  POPE      H3X           -40.2873196333      -22.5478706337       11.3872441455  MEMB      125             0.0000000000
     14043       125  POPE      H3Y           -41.3505924460      -22.0643859152       12.6456132216  MEMB      125             0.0000000000
     14044       125  POPE      C34           -42.2089451761      -23.5782292211       11.3445523715  MEMB      125             0.0000000000
     14045       125  POPE      H4X           -42.6863210862      -22.7987615648       10.7129958011  MEMB      125             0.0000000000
     14046       125  POPE      H4Y           -42.8743877993      -23.9070059129       12.1712401292  MEMB      125             0.0000000000
     14047       125  POPE      C35           -41.9214700809      -24.8691478121       10.5108531608  MEMB      125             0.0000000000
     14048       125  POPE      H5X           -42.8398544611      -25.1365555252        9.9457128206  MEMB      125             0.0000000000
     14049       125  POPE      H5Y           -41.8646862223      -25.7002060100       11.2459988266  MEMB      125             0.0000000000
     14050       125  POPE      C36           -40.6971202862      -25.0166854204        9.6305663843  MEMB      125             0.0000000000
     14051       125  POPE      H6X           -40.3973190226      -26.0803266137        9.5160780804  MEMB      125             0.0000000000
     14052       125  POPE      H6Y           -39.8626159911      -24.5811522001       10.2206812413  MEMB      125             0.0000000000
     14053       125  POPE      C37           -40.8933035408      -24.4319152673        8.1891509812  MEMB      125             0.0000000000
     14054       125  POPE      H7X           -41.0606641810      -23.3337590164        8.2082376612  MEMB      125             0.0000000000
     14055       125  POPE      H7Y           -41.8105823208      -24.7965528493        7.6792885595  MEMB      125             0.0000000000
     14056       125  POPE      C38           -39.6723079793      -24.5884935371        7.2667019494  MEMB      125             0.0000000000
     14057       125  POPE      H8X           -38.7035742199      -24.3639719306        7.7621476431  MEMB      125             0.0000000000
     14058       125  POPE      H8Y           -39.8410729774      -23.9211008499        6.3946776489  MEMB      125             0.0000000000
     14059       125  POPE      C39           -39.5202480412      -26.0063462969        6.6728131579  MEMB      125             0.0000000000
     14060       125  POPE      H9X           -40.4415998737      -26.2754990832        6.1133581246  MEMB      125             0.0000000000
     14061       125  POPE      H9Y           -39.2581560241      -26.7727176115        7.4332754314  MEMB      125             0.0000000000
     14062       125  POPE      C310          -38.4624751948      -26.1881496840        5.6071789759  MEMB      125             0.0000000000
     14063       125  POPE      H10X          -38.6216340236      -27.1985953217        5.1736020061  MEMB      125             0.0000000000
     14064       125  POPE      H10Y          -37.3796781039      -26.1555521671        5.8537733274  MEMB      125             0.0000000000
     14065       125  POPE      C311          -38.6880021457      -25.2576447966        4.3853208134  MEMB      125             0.0000000000
     14066       125  POPE      H11X          -38.7332157308      -24.2374136868        4.8228199289  MEMB      125             0.0000000000
     14067       125  POPE      H11Y          -39.6969028782      -25.5002592757        3.9883587762  MEMB      125             0.0000000000
     14068       125  POPE      C312          -37.5671339776      -25.3930742639        3.2859637875  MEMB      125             0.0000000000
     14069       125  POPE      H12X          -37.8564207250      -26.0964920493        2.4761259761  MEMB      125             0.0000000000
     14070       125  POPE      H12Y          -36.6574060598      -25.8366800382        3.7441452124  MEMB      125             0.0000000000
     14071       125  POPE      C313          -37.3713591396      -24.1658091630        2.5387941132  MEMB      125             0.0000000000
     14072       125  POPE      H13X          -36.6205222821      -24.3000567431        1.7309928396  MEMB      125             0.0000000000
     14073       125  POPE      H13Y          -37.1612479255      -23.3298692055        3.2397789443  MEMB      125             0.0000000000
     14074       125  POPE      C314          -38.6465236863      -23.6190206433        1.9051230831  MEMB      125             0.0000000000
     14075       125  POPE      H14X          -38.5391916714      -22.5351448904        1.6860008865  MEMB      125             0.0000000000
     14076       125  POPE      H14Y          -39.5253186910      -23.7751255559        2.5666904309  MEMB      125             0.0000000000
     14077       125  POPE      C315          -38.8246657015      -24.2162875291        0.5179571119  MEMB      125             0.0000000000
     14078       125  POPE      H15X          -38.8533984229      -25.3187466727        0.6524169350  MEMB      125             0.0000000000
     14079       125  POPE      H15Y          -37.8955853210      -23.9635098254       -0.0363307021  MEMB      125             0.0000000000
     14080       125  POPE      C316          -40.0328489264      -23.7160698177       -0.1450601650  MEMB      125             0.0000000000
     14081       125  POPE      H16X          -40.9593560212      -23.9888136753        0.4040446035  MEMB      125             0.0000000000
     14082       125  POPE      H16Y          -40.1512867625      -24.0062825500       -1.2109260349  MEMB      125             0.0000000000
     14083       125  POPE      H16Z          -40.0328217924      -22.6067042342       -0.2053039729  MEMB      125             0.0000000000
     14084       126  POPE      N             -14.1176439035      -45.1482330592       18.4328036723  MEMB      126             0.0000000000
     14085       126  POPE      HN1           -13.2971680543      -45.2526006557       17.8023064093  MEMB      126             0.0000000000
     14086       126  POPE      HN2           -13.9414969952      -45.7030886134       19.2946084609  MEMB      126             0.0000000000
     14087       126  POPE      HN3           -14.9788996547      -45.3701864313       17.8937531663  MEMB      126             0.0000000000
     14088       126  POPE      C12           -14.2440415232      -43.7687562011       19.0370995342  MEMB      126             0.0000000000
     14089       126  POPE      H12A          -13.5131463502      -43.0495453344       18.6094908285  MEMB      126             0.0000000000
     14090       126  POPE      H12B          -14.1444532084      -43.8748147761       20.1385325898  MEMB      126             0.0000000000
     14091       126  POPE      C11           -15.6714423706      -43.1297729141       18.8063797715  MEMB      126             0.0000000000
     14092       126  POPE      H11A          -15.8568766985      -43.0504982466       17.7138365379  MEMB      126             0.0000000000
     14093       126  POPE      H11B          -15.4665584742      -42.1708795938       19.3287466841  MEMB      126             0.0000000000
     14094       126  POPE      P             -18.0581755499      -44.0140434195       19.1520606907  MEMB      126             0.0000000000
     14095       126  POPE      O13           -18.5833056329      -42.7029437059       18.7177269328  MEMB      126             0.0000000000
     14096       126  POPE      O14           -18.8452594533      -44.6517517404       20.2162342271  MEMB      126             0.0000000000
     14097       126  POPE      O11           -17.9333085295      -45.0095447170       18.0097469480  MEMB      126             0.0000000000
     14098       126  POPE      O12           -16.5656990389      -43.7945606396       19.6279482197  MEMB      126             0.0000000000
     14099       126  POPE      C1            -17.9615625145      -46.3990333219       18.3539400030  MEMB      126             0.0000000000
     14100       126  POPE      HA            -18.6296159227      -46.6219763574       19.2131967027  MEMB      126             0.0000000000
     14101       126  POPE      HB            -16.9284171818      -46.7047108472       18.6250358638  MEMB      126             0.0000000000
     14102       126  POPE      C2            -18.2506913283      -47.2144928821       17.0838908426  MEMB      126             0.0000000000
     14103       126  POPE      HS            -17.9752620092      -48.2790517508       17.2425540516  MEMB      126             0.0000000000
     14104       126  POPE      O21           -17.6073905837      -46.6740612125       15.8666479321  MEMB      126             0.0000000000
     14105       126  POPE      C21           -16.2467426204      -46.6891628660       15.8904033884  MEMB      126             0.0000000000
     14106       126  POPE      O22           -15.6261874315      -47.3870474823       16.6547869753  MEMB      126             0.0000000000
     14107       126  POPE      C22           -15.7554680430      -45.8790968610       14.6557489084  MEMB      126             0.0000000000
     14108       126  POPE      H2R           -16.6442773067      -45.3559975734       14.2425829077  MEMB      126             0.0000000000
     14109       126  POPE      H2S           -15.4240794605      -46.6125289821       13.8898638548  MEMB      126             0.0000000000
     14110       126  POPE      C3            -19.7590282994      -47.1842811944       16.7999242439  MEMB      126             0.0000000000
     14111       126  POPE      HX            -20.2682931249      -47.6905487634       17.6476647249  MEMB      126             0.0000000000
     14112       126  POPE      HY            -19.9447582473      -47.7809716383       15.8813459540  MEMB      126             0.0000000000
     14113       126  POPE      O31           -20.2661302724      -45.8312623085       16.7284049927  MEMB      126             0.0000000000
     14114       126  POPE      C31           -20.1991540890      -45.1959418818       15.5620086967  MEMB      126             0.0000000000
     14115       126  POPE      O32           -20.0196238869      -45.6640907838       14.4777810958  MEMB      126             0.0000000000
     14116       126  POPE      C32           -20.3111608763      -43.7483461476       15.6793509498  MEMB      126             0.0000000000
     14117       126  POPE      H2X           -20.0182661147      -43.3000350999       16.6527732326  MEMB      126             0.0000000000
     14118       126  POPE      H2Y           -21.4070159457      -43.6066596344       15.7948800853  MEMB      126             0.0000000000
     14119       126  POPE      C23           -14.6606418904      -44.7757056159       14.8843505075  MEMB      126             0.0000000000
     14120       126  POPE      H3R           -13.7546570494      -45.2262426474       15.3431849578  MEMB      126             0.0000000000
     14121       126  POPE      H3S           -15.1912917441      -43.9935738572       15.4683041148  MEMB      126             0.0000000000
     14122       126  POPE      C24           -14.2385990850      -44.1082376490       13.5296348215  MEMB      126             0.0000000000
     14123       126  POPE      H4R           -13.6836170040      -43.1620685731       13.7059304612  MEMB      126             0.0000000000
     14124       126  POPE      H4S           -15.2393396131      -43.7753309422       13.1803324886  MEMB      126             0.0000000000
     14125       126  POPE      C25           -13.5986274445      -45.0344991043       12.5454740190  MEMB      126             0.0000000000
     14126       126  POPE      H5R           -14.3175356862      -45.8280120365       12.2491139047  MEMB      126             0.0000000000
     14127       126  POPE      H5S           -12.7849239863      -45.5396668915       13.1085134487  MEMB      126             0.0000000000
     14128       126  POPE      C26           -13.0998671476      -44.2818555612       11.2867154465  MEMB      126             0.0000000000
     14129       126  POPE      H6R           -12.5613188530      -44.9991548194       10.6311482664  MEMB      126             0.0000000000
     14130       126  POPE      H6S           -12.3627288403      -43.5359941628       11.6536468592  MEMB      126             0.0000000000
     14131       126  POPE      C27           -14.1126734748      -43.4563223837       10.3729975180  MEMB      126             0.0000000000
     14132       126  POPE      H7R           -14.3240088986      -42.5735877880       11.0136515896  MEMB      126             0.0000000000
     14133       126  POPE      H7S           -15.0795668889      -44.0020732050       10.3330673481  MEMB      126             0.0000000000
     14134       126  POPE      C28           -13.7480335384      -43.0857689571        9.0056517806  MEMB      126             0.0000000000
     14135       126  POPE      H8R           -13.4941852419      -44.0090290498        8.4422044674  MEMB      126             0.0000000000
     14136       126  POPE      H8S           -12.8810729671      -42.4007469772        9.1216059254  MEMB      126             0.0000000000
     14137       126  POPE      C29           -14.8063495205      -42.2444616220        8.2520534981  MEMB      126             0.0000000000
     14138       126  POPE      H91           -14.9178501110      -41.2655892177        8.7413142909  MEMB      126             0.0000000000
     14139       126  POPE      C210          -15.5022892585      -42.4270797511        7.1252899836  MEMB      126             0.0000000000
     14140       126  POPE      H101          -16.0679405737      -41.6169192745        6.6418867958  MEMB      126             0.0000000000
     14141       126  POPE      C211          -15.3785955828      -43.6227657863        6.2008831344  MEMB      126             0.0000000000
     14142       126  POPE      H11R          -16.4186015340      -44.0063411841        6.1261937146  MEMB      126             0.0000000000
     14143       126  POPE      H11S          -14.7121433362      -44.4528741401        6.5188173448  MEMB      126             0.0000000000
     14144       126  POPE      C212          -14.9496594141      -43.3773963562        4.7066124260  MEMB      126             0.0000000000
     14145       126  POPE      H12R          -14.8367629303      -44.4263809945        4.3584651651  MEMB      126             0.0000000000
     14146       126  POPE      H12S          -13.9505157280      -42.9266883496        4.5252421596  MEMB      126             0.0000000000
     14147       126  POPE      C213          -15.9287628471      -42.5922945489        3.8779820743  MEMB      126             0.0000000000
     14148       126  POPE      H13R          -15.9704703158      -41.5515664952        4.2645912189  MEMB      126             0.0000000000
     14149       126  POPE      H13S          -16.8937658025      -43.1258034687        4.0138449450  MEMB      126             0.0000000000
     14150       126  POPE      C214          -15.4130124563      -42.5794952583        2.3983051952  MEMB      126             0.0000000000
     14151       126  POPE      H14R          -14.4677233261      -41.9959380040        2.3837910264  MEMB      126             0.0000000000
     14152       126  POPE      H14S          -16.0981410610      -41.9807802575        1.7607617434  MEMB      126             0.0000000000
     14153       126  POPE      C215          -15.1645575055      -44.0596445002        1.8660992579  MEMB      126             0.0000000000
     14154       126  POPE      H15R          -16.0818158089      -44.6396251392        2.1039659130  MEMB      126             0.0000000000
     14155       126  POPE      H15S          -14.2654925958      -44.4686145800        2.3747708900  MEMB      126             0.0000000000
     14156       126  POPE      C216          -14.9370174625      -44.0527031654        0.3777785430  MEMB      126             0.0000000000
     14157       126  POPE      H16R          -15.7963721482      -43.5201055944       -0.0828406749  MEMB      126             0.0000000000
     14158       126  POPE      H16S          -15.1041398765      -45.1170704422        0.1066459840  MEMB      126             0.0000000000
     14159       126  POPE      C217          -13.6849612743      -43.3825303094       -0.1301819221  MEMB      126             0.0000000000
     14160       126  POPE      H17R          -13.6190462994      -42.3041824346        0.1289361098  MEMB      126             0.0000000000
     14161       126  POPE      H17S          -13.5899998982      -43.5329812210       -1.2268428812  MEMB      126             0.0000000000
     14162       126  POPE      C218          -12.3618225136      -44.0790981459        0.3187234284  MEMB      126             0.0000000000
     14163       126  POPE      H18R          -11.5136284882      -43.6821234892       -0.2790208723  MEMB      126             0.0000000000
     14164       126  POPE      H18S          -12.4689925135      -45.1682472329        0.1274380720  MEMB      126             0.0000000000
     14165       126  POPE      H18T          -12.2420673986      -43.9593280567        1.4167373548  MEMB      126             0.0000000000
     14166       126  POPE      C33           -19.8971329286      -42.9954966076       14.4406380420  MEMB      126             0.0000000000
     14167       126  POPE      H3X           -20.2839974546      -41.9547584459       14.4796395663  MEMB      126             0.0000000000
     14168       126  POPE      H3Y           -20.2770474239      -43.5379348298       13.5485915871  MEMB      126             0.0000000000
     14169       126  POPE      C34           -18.3901092756      -42.8920411399       14.2999595547  MEMB      126             0.0000000000
     14170       126  POPE      H4X           -17.8873226481      -43.8198061321       13.9524272920  MEMB      126             0.0000000000
     14171       126  POPE      H4Y           -18.0341543943      -42.7780633203       15.3462033364  MEMB      126             0.0000000000
     14172       126  POPE      C35           -17.8668448291      -41.6952544710       13.4763681738  MEMB      126             0.0000000000
     14173       126  POPE      H5X           -16.7564718909      -41.7246913798       13.4534250808  MEMB      126             0.0000000000
     14174       126  POPE      H5Y           -18.5040963732      -40.8877175343       13.8960293756  MEMB      126             0.0000000000
     14175       126  POPE      C36           -18.2246607421      -41.9792471572       11.9997887097  MEMB      126             0.0000000000
     14176       126  POPE      H6X           -19.3283614008      -42.0308967362       11.8836062269  MEMB      126             0.0000000000
     14177       126  POPE      H6Y           -17.7659165024      -42.9199306183       11.6269762801  MEMB      126             0.0000000000
     14178       126  POPE      C37           -17.6748677896      -40.8726728376       11.0204269752  MEMB      126             0.0000000000
     14179       126  POPE      H7X           -16.6719686270      -41.1754421718       10.6505011530  MEMB      126             0.0000000000
     14180       126  POPE      H7Y           -17.5175920857      -39.9218687205       11.5731987528  MEMB      126             0.0000000000
     14181       126  POPE      C38           -18.6157037430      -40.7195265933        9.8350275940  MEMB      126             0.0000000000
     14182       126  POPE      H8X           -19.5987318549      -40.3653572544       10.2125735292  MEMB      126             0.0000000000
     14183       126  POPE      H8Y           -18.6847062376      -41.7265375296        9.3708200764  MEMB      126             0.0000000000
     14184       126  POPE      C39           -18.1149715823      -39.8430989547        8.6987272095  MEMB      126             0.0000000000
     14185       126  POPE      H9X           -17.1520918951      -40.2753798190        8.3518598848  MEMB      126             0.0000000000
     14186       126  POPE      H9Y           -17.9401711699      -38.8296610839        9.1190953564  MEMB      126             0.0000000000
     14187       126  POPE      C310          -19.0767008602      -39.5396133896        7.5471424748  MEMB      126             0.0000000000
     14188       126  POPE      H10X          -18.6255992737      -38.9384776910        6.7289348410  MEMB      126             0.0000000000
     14189       126  POPE      H10Y          -19.9587981872      -38.9957671804        7.9477130827  MEMB      126             0.0000000000
     14190       126  POPE      C311          -19.6246182672      -40.8413565091        6.9250539383  MEMB      126             0.0000000000
     14191       126  POPE      H11X          -20.0269959450      -41.4815930561        7.7390011355  MEMB      126             0.0000000000
     14192       126  POPE      H11Y          -18.7816439101      -41.4790065651        6.5828290365  MEMB      126             0.0000000000
     14193       126  POPE      C312          -20.7164928895      -40.8191173498        5.8908627697  MEMB      126             0.0000000000
     14194       126  POPE      H12X          -20.3345074372      -40.2757621065        5.0002600670  MEMB      126             0.0000000000
     14195       126  POPE      H12Y          -21.6242415335      -40.3414721954        6.3176742444  MEMB      126             0.0000000000
     14196       126  POPE      C313          -21.2294501476      -42.2196444656        5.4085261844  MEMB      126             0.0000000000
     14197       126  POPE      H13X          -22.2195178223      -42.0426514636        4.9365505654  MEMB      126             0.0000000000
     14198       126  POPE      H13Y          -21.2705593099      -42.9158297008        6.2733707028  MEMB      126             0.0000000000
     14199       126  POPE      C314          -20.2882777861      -42.8199516221        4.3833891302  MEMB      126             0.0000000000
     14200       126  POPE      H14X          -20.6470175116      -43.8402183741        4.1290611060  MEMB      126             0.0000000000
     14201       126  POPE      H14Y          -19.3089926975      -43.0307460324        4.8638970829  MEMB      126             0.0000000000
     14202       126  POPE      C315          -20.0295097063      -42.1764270007        2.9720720148  MEMB      126             0.0000000000
     14203       126  POPE      H15X          -19.3669737495      -41.3092212636        3.1802097720  MEMB      126             0.0000000000
     14204       126  POPE      H15Y          -20.9957912136      -41.7423714595        2.6370830619  MEMB      126             0.0000000000
     14205       126  POPE      C316          -19.4611134913      -43.0441533517        1.8505352998  MEMB      126             0.0000000000
     14206       126  POPE      H16X          -20.2483838601      -43.7521063222        1.5138927226  MEMB      126             0.0000000000
     14207       126  POPE      H16Y          -18.6382302758      -43.6403597194        2.2996702147  MEMB      126             0.0000000000
     14208       126  POPE      H16Z          -19.0510368819      -42.4203968333        1.0276842839  MEMB      126             0.0000000000
     14209       127  POPE      N             -38.3267417612       57.1514345487       21.3031093456  MEMB      127             0.0000000000
     14210       127  POPE      HN1           -37.7952492302       56.5536596675       21.9677753951  MEMB      127             0.0000000000
     14211       127  POPE      HN2           -37.6925623388       57.5193504464       20.5655091333  MEMB      127             0.0000000000
     14212       127  POPE      HN3           -38.6865936199       57.9208747338       21.9031664048  MEMB      127             0.0000000000
     14213       127  POPE      C12           -39.2591124334       56.0978663958       20.6681232615  MEMB      127             0.0000000000
     14214       127  POPE      H12A          -39.7956649992       56.4041306243       19.7447410602  MEMB      127             0.0000000000
     14215       127  POPE      H12B          -39.9676789298       55.7134788165       21.4326499116  MEMB      127             0.0000000000
     14216       127  POPE      C11           -38.3279804932       54.9025859031       20.2314876669  MEMB      127             0.0000000000
     14217       127  POPE      H11A          -37.9748570388       54.4824700541       21.1974730307  MEMB      127             0.0000000000
     14218       127  POPE      H11B          -37.4824971132       55.2108937611       19.5800085473  MEMB      127             0.0000000000
     14219       127  POPE      P             -39.1663077422       53.9440845450       17.9334009697  MEMB      127             0.0000000000
     14220       127  POPE      O13           -40.5484051824       53.5749163780       17.5339018646  MEMB      127             0.0000000000
     14221       127  POPE      O14           -38.1693145670       52.9598337493       17.4795189869  MEMB      127             0.0000000000
     14222       127  POPE      O11           -38.7839234684       55.4022291894       17.3513166438  MEMB      127             0.0000000000
     14223       127  POPE      O12           -39.1136953452       54.0116872156       19.4991412619  MEMB      127             0.0000000000
     14224       127  POPE      C1            -37.6267093672       55.6244011769       16.5469216534  MEMB      127             0.0000000000
     14225       127  POPE      HA            -37.0499348798       54.6798413950       16.4496634412  MEMB      127             0.0000000000
     14226       127  POPE      HB            -36.9548445331       56.2684018318       17.1537015508  MEMB      127             0.0000000000
     14227       127  POPE      C2            -38.0907907208       56.3491711343       15.2233023461  MEMB      127             0.0000000000
     14228       127  POPE      HS            -38.6286541873       57.2645449429       15.5505861327  MEMB      127             0.0000000000
     14229       127  POPE      O21           -39.0037384281       55.4877389863       14.4601592919  MEMB      127             0.0000000000
     14230       127  POPE      C21           -39.8229966674       56.0919116095       13.6091499891  MEMB      127             0.0000000000
     14231       127  POPE      O22           -39.8613003552       57.2989618802       13.4145282667  MEMB      127             0.0000000000
     14232       127  POPE      C22           -40.6776784595       55.0603339231       12.8009489172  MEMB      127             0.0000000000
     14233       127  POPE      H2R           -41.3697465609       55.6658040813       12.1774355286  MEMB      127             0.0000000000
     14234       127  POPE      H2S           -41.2735145296       54.4291030849       13.4943809648  MEMB      127             0.0000000000
     14235       127  POPE      C3            -36.7441298974       56.6429595136       14.4872625845  MEMB      127             0.0000000000
     14236       127  POPE      HX            -36.3132879659       55.7052666501       14.0756458859  MEMB      127             0.0000000000
     14237       127  POPE      HY            -36.0027373462       57.1269678021       15.1583764403  MEMB      127             0.0000000000
     14238       127  POPE      O31           -36.7685901615       57.4324915549       13.2561691130  MEMB      127             0.0000000000
     14239       127  POPE      C31           -37.1781157117       58.6824341538       13.3755044654  MEMB      127             0.0000000000
     14240       127  POPE      O32           -37.3837466362       59.2966497566       14.4153412499  MEMB      127             0.0000000000
     14241       127  POPE      C32           -37.1353237978       59.3296926948       11.9837572593  MEMB      127             0.0000000000
     14242       127  POPE      H2X           -37.4391054719       58.6129832019       11.1910625275  MEMB      127             0.0000000000
     14243       127  POPE      H2Y           -36.0806865785       59.6444369224       11.8321062222  MEMB      127             0.0000000000
     14244       127  POPE      C23           -39.7224461794       54.2068778523       11.9848485881  MEMB      127             0.0000000000
     14245       127  POPE      H3R           -40.2986785932       53.3735155527       11.5290147325  MEMB      127             0.0000000000
     14246       127  POPE      H3S           -39.0298244897       53.6479548214       12.6498301419  MEMB      127             0.0000000000
     14247       127  POPE      C24           -39.0001309148       55.0614936905       10.9621375577  MEMB      127             0.0000000000
     14248       127  POPE      H4R           -38.3497789512       55.8393542545       11.4163360602  MEMB      127             0.0000000000
     14249       127  POPE      H4S           -39.7173742477       55.6176793721       10.3214033495  MEMB      127             0.0000000000
     14250       127  POPE      C25           -38.1264893036       54.2512321830        9.9776238012  MEMB      127             0.0000000000
     14251       127  POPE      H5R           -38.7395905219       53.3446341965        9.7865527656  MEMB      127             0.0000000000
     14252       127  POPE      H5S           -37.1401061691       54.0286639208       10.4378761387  MEMB      127             0.0000000000
     14253       127  POPE      C26           -37.9539384117       54.7803979755        8.5309134747  MEMB      127             0.0000000000
     14254       127  POPE      H6R           -38.9301307029       54.7044198656        8.0059396852  MEMB      127             0.0000000000
     14255       127  POPE      H6S           -37.1415488610       54.1974372619        8.0466601800  MEMB      127             0.0000000000
     14256       127  POPE      C27           -37.5627879618       56.2455456950        8.5736217631  MEMB      127             0.0000000000
     14257       127  POPE      H7R           -38.4433300606       56.7776709513        8.9929179371  MEMB      127             0.0000000000
     14258       127  POPE      H7S           -37.4670446866       56.6427517037        7.5404801639  MEMB      127             0.0000000000
     14259       127  POPE      C28           -36.2310513239       56.6788107924        9.2987732419  MEMB      127             0.0000000000
     14260       127  POPE      H8R           -36.3285072196       56.2766961675       10.3298540119  MEMB      127             0.0000000000
     14261       127  POPE      H8S           -36.3160408806       57.7821961171        9.3969479086  MEMB      127             0.0000000000
     14262       127  POPE      C29           -34.9206391161       56.3805249211        8.6896640011  MEMB      127             0.0000000000
     14263       127  POPE      H91           -34.6802746665       55.3130661192        8.5767192000  MEMB      127             0.0000000000
     14264       127  POPE      C210          -34.0562464371       57.3477960332        8.1997821934  MEMB      127             0.0000000000
     14265       127  POPE      H101          -33.1067697233       57.0591349611        7.7252631665  MEMB      127             0.0000000000
     14266       127  POPE      C211          -34.2452824602       58.8054588450        8.1462598111  MEMB      127             0.0000000000
     14267       127  POPE      H11R          -33.2262099644       59.2442197243        8.2037212328  MEMB      127             0.0000000000
     14268       127  POPE      H11S          -34.9091794363       59.2154140925        8.9371445959  MEMB      127             0.0000000000
     14269       127  POPE      C212          -34.6886661962       59.1870510792        6.6871458897  MEMB      127             0.0000000000
     14270       127  POPE      H12R          -33.9408869886       58.7758758215        5.9757516813  MEMB      127             0.0000000000
     14271       127  POPE      H12S          -34.6908981144       60.2957959838        6.6164328486  MEMB      127             0.0000000000
     14272       127  POPE      C213          -36.0677560962       58.7243242921        6.1823044723  MEMB      127             0.0000000000
     14273       127  POPE      H13R          -36.8119173612       59.1318479957        6.8995699386  MEMB      127             0.0000000000
     14274       127  POPE      H13S          -35.9467429766       57.6279599319        6.0494049892  MEMB      127             0.0000000000
     14275       127  POPE      C214          -36.4747533592       59.3576542024        4.8203833253  MEMB      127             0.0000000000
     14276       127  POPE      H14R          -36.5825425023       60.4602486943        4.9039800285  MEMB      127             0.0000000000
     14277       127  POPE      H14S          -37.4649338296       58.9545782433        4.5180700336  MEMB      127             0.0000000000
     14278       127  POPE      C215          -35.5351422389       58.9901989758        3.5664156788  MEMB      127             0.0000000000
     14279       127  POPE      H15R          -35.5582021516       57.8798641413        3.5356616640  MEMB      127             0.0000000000
     14280       127  POPE      H15S          -34.5050348375       59.2909647697        3.8540603727  MEMB      127             0.0000000000
     14281       127  POPE      C216          -35.8981060824       59.6856243375        2.2171194073  MEMB      127             0.0000000000
     14282       127  POPE      H16R          -35.7107130909       60.7740386537        2.3377835245  MEMB      127             0.0000000000
     14283       127  POPE      H16S          -36.9213218907       59.3563483987        1.9361782161  MEMB      127             0.0000000000
     14284       127  POPE      C217          -34.9681282951       59.2379380598        1.0444743056  MEMB      127             0.0000000000
     14285       127  POPE      H17R          -35.1662730849       58.1620014396        0.8510321012  MEMB      127             0.0000000000
     14286       127  POPE      H17S          -33.9157281533       59.2507845727        1.4002965179  MEMB      127             0.0000000000
     14287       127  POPE      C218          -34.9498906066       60.0134079466       -0.2645874454  MEMB      127             0.0000000000
     14288       127  POPE      H18R          -35.9461505870       59.8372808888       -0.7236806479  MEMB      127             0.0000000000
     14289       127  POPE      H18S          -34.1453404032       59.7215152020       -0.9729777726  MEMB      127             0.0000000000
     14290       127  POPE      H18T          -34.7562268769       61.1057636451       -0.2048052311  MEMB      127             0.0000000000
     14291       127  POPE      C33           -38.1038765007       60.4904898830       12.0639467424  MEMB      127             0.0000000000
     14292       127  POPE      H3X           -37.7727987528       61.2580371202       12.7957800964  MEMB      127             0.0000000000
     14293       127  POPE      H3Y           -39.0419429483       60.0668173848       12.4821013071  MEMB      127             0.0000000000
     14294       127  POPE      C34           -38.5076077551       61.0135039548       10.5921782808  MEMB      127             0.0000000000
     14295       127  POPE      H4X           -37.5543396412       61.2789010246       10.0870396983  MEMB      127             0.0000000000
     14296       127  POPE      H4Y           -39.0403528132       61.9877822000       10.6280317797  MEMB      127             0.0000000000
     14297       127  POPE      C35           -39.0930158088       60.0854042208        9.5267768020  MEMB      127             0.0000000000
     14298       127  POPE      H5X           -38.7299818657       59.0364203518        9.5732548107  MEMB      127             0.0000000000
     14299       127  POPE      H5Y           -38.7914676131       60.5780856925        8.5777483832  MEMB      127             0.0000000000
     14300       127  POPE      C36           -40.6069220771       60.2239519842        9.4538560823  MEMB      127             0.0000000000
     14301       127  POPE      H6X           -40.8451719566       61.1317703028        8.8593608468  MEMB      127             0.0000000000
     14302       127  POPE      H6Y           -41.1208542574       60.3665252279       10.4284676346  MEMB      127             0.0000000000
     14303       127  POPE      C37           -41.3875345447       59.0625800228        8.7054601734  MEMB      127             0.0000000000
     14304       127  POPE      H7X           -42.3639191930       59.4313023377        8.3246213311  MEMB      127             0.0000000000
     14305       127  POPE      H7Y           -41.6231362474       58.1880840130        9.3489419419  MEMB      127             0.0000000000
     14306       127  POPE      C38           -40.5273962770       58.5779917020        7.4991657466  MEMB      127             0.0000000000
     14307       127  POPE      H8X           -39.5782058419       58.1781211209        7.9156537628  MEMB      127             0.0000000000
     14308       127  POPE      H8Y           -40.2076865746       59.4156797256        6.8431275280  MEMB      127             0.0000000000
     14309       127  POPE      C39           -41.2856241225       57.5178490086        6.6994440542  MEMB      127             0.0000000000
     14310       127  POPE      H9X           -42.2399860440       57.8585546685        6.2439940922  MEMB      127             0.0000000000
     14311       127  POPE      H9Y           -41.7298725000       56.8600733220        7.4768086486  MEMB      127             0.0000000000
     14312       127  POPE      C310          -40.4251679420       56.6554052351        5.8495463089  MEMB      127             0.0000000000
     14313       127  POPE      H10X          -41.0630320231       55.7484390167        5.7798151282  MEMB      127             0.0000000000
     14314       127  POPE      H10Y          -39.4757577310       56.3968567801        6.3653895326  MEMB      127             0.0000000000
     14315       127  POPE      C311          -40.2457910904       57.0389381269        4.3912824797  MEMB      127             0.0000000000
     14316       127  POPE      H11X          -40.0046901869       58.1230131880        4.3600891552  MEMB      127             0.0000000000
     14317       127  POPE      H11Y          -41.2314911129       57.1132689525        3.8841417193  MEMB      127             0.0000000000
     14318       127  POPE      C312          -39.2208475630       56.1021471955        3.6041397629  MEMB      127             0.0000000000
     14319       127  POPE      H12X          -39.5990657795       55.0669820035        3.4637653045  MEMB      127             0.0000000000
     14320       127  POPE      H12Y          -38.3749476700       56.0878514343        4.3242576417  MEMB      127             0.0000000000
     14321       127  POPE      C313          -38.8247787782       56.5510168467        2.1877204532  MEMB      127             0.0000000000
     14322       127  POPE      H13X          -38.2664088522       57.4962261911        2.3583756653  MEMB      127             0.0000000000
     14323       127  POPE      H13Y          -39.7257612672       56.6518041091        1.5455408407  MEMB      127             0.0000000000
     14324       127  POPE      C314          -37.8173737151       55.6897430573        1.5499572581  MEMB      127             0.0000000000
     14325       127  POPE      H14X          -38.0943105579       54.6186992478        1.6523880438  MEMB      127             0.0000000000
     14326       127  POPE      H14Y          -36.9584419838       55.6177076802        2.2509341076  MEMB      127             0.0000000000
     14327       127  POPE      C315          -37.3416499030       56.1309284884        0.1278680586  MEMB      127             0.0000000000
     14328       127  POPE      H15X          -36.4747463705       55.4719543341       -0.0924779986  MEMB      127             0.0000000000
     14329       127  POPE      H15Y          -37.0422365255       57.1925462904        0.2606845117  MEMB      127             0.0000000000
     14330       127  POPE      C316          -38.4658081486       56.0031056696       -0.8665591874  MEMB      127             0.0000000000
     14331       127  POPE      H16X          -39.3220153420       56.6114075144       -0.5043459837  MEMB      127             0.0000000000
     14332       127  POPE      H16Y          -38.8333572090       54.9638171486       -1.0047897848  MEMB      127             0.0000000000
     14333       127  POPE      H16Z          -38.2119735475       56.3741225751       -1.8825500049  MEMB      127             0.0000000000
     14334       128  POPE      N               7.9626310654      -47.7282177661       20.2617786535  MEMB      128             0.0000000000
     14335       128  POPE      HN1             8.2812944723      -47.2751703045       21.1420069497  MEMB      128             0.0000000000
     14336       128  POPE      HN2             7.5538561612      -48.6514766829       20.5109697989  MEMB      128             0.0000000000
     14337       128  POPE      HN3             8.7715140802      -47.7947592269       19.6114859362  MEMB      128             0.0000000000
     14338       128  POPE      C12             6.9772298547      -46.8247968982       19.6198835520  MEMB      128             0.0000000000
     14339       128  POPE      H12A            7.6181256460      -46.1256072136       19.0413446277  MEMB      128             0.0000000000
     14340       128  POPE      H12B            6.3194626744      -46.3212167958       20.3602012162  MEMB      128             0.0000000000
     14341       128  POPE      C11             6.0277418885      -47.5926879856       18.6475323937  MEMB      128             0.0000000000
     14342       128  POPE      H11A            6.6287518456      -48.1429483049       17.8923360166  MEMB      128             0.0000000000
     14343       128  POPE      H11B            5.3343924935      -46.9140546649       18.1061967165  MEMB      128             0.0000000000
     14344       128  POPE      P               4.2209629576      -49.5121440471       18.7252496436  MEMB      128             0.0000000000
     14345       128  POPE      O13             3.0105491274      -48.7258203232       18.4392994177  MEMB      128             0.0000000000
     14346       128  POPE      O14             4.0154578955      -50.7612520269       19.5391802333  MEMB      128             0.0000000000
     14347       128  POPE      O11             4.9801727120      -49.9493783667       17.3248860221  MEMB      128             0.0000000000
     14348       128  POPE      O12             5.2949310577      -48.5712097845       19.4421900803  MEMB      128             0.0000000000
     14349       128  POPE      C1              6.1513628650      -50.7634255206       17.4316052782  MEMB      128             0.0000000000
     14350       128  POPE      HA              5.8887148049      -51.8427873540       17.4138553769  MEMB      128             0.0000000000
     14351       128  POPE      HB              6.8092496920      -50.5270575499       18.2951074465  MEMB      128             0.0000000000
     14352       128  POPE      C2              6.9813248842      -50.4297161200       16.1068499260  MEMB      128             0.0000000000
     14353       128  POPE      HS              8.0269139094      -50.7666882519       16.2727243252  MEMB      128             0.0000000000
     14354       128  POPE      O21             6.9158877358      -48.9987586251       15.7418570309  MEMB      128             0.0000000000
     14355       128  POPE      C21             7.8149686545      -48.4395378045       14.9921287363  MEMB      128             0.0000000000
     14356       128  POPE      O22             8.7947519754      -49.0049367752       14.4690184380  MEMB      128             0.0000000000
     14357       128  POPE      C22             7.4313068096      -46.9103936136       14.6952648071  MEMB      128             0.0000000000
     14358       128  POPE      H2R             7.9561667943      -46.5561690719       13.7823746729  MEMB      128             0.0000000000
     14359       128  POPE      H2S             7.9621496563      -46.2775025652       15.4382153717  MEMB      128             0.0000000000
     14360       128  POPE      C3              6.5388978114      -51.2806751081       14.8421591887  MEMB      128             0.0000000000
     14361       128  POPE      HX              6.4217132303      -52.3507291222       15.1170645101  MEMB      128             0.0000000000
     14362       128  POPE      HY              7.2847224962      -51.0990165250       14.0389985962  MEMB      128             0.0000000000
     14363       128  POPE      O31             5.3442721156      -50.7608125142       14.3405750208  MEMB      128             0.0000000000
     14364       128  POPE      C31             4.9258615397      -51.5825001999       13.3214674528  MEMB      128             0.0000000000
     14365       128  POPE      O32             5.5975415976      -52.4323964141       12.7417210224  MEMB      128             0.0000000000
     14366       128  POPE      C32             3.5114398446      -51.0946173677       12.9360312996  MEMB      128             0.0000000000
     14367       128  POPE      H2X             2.9010945860      -52.0216354178       12.8866648650  MEMB      128             0.0000000000
     14368       128  POPE      H2Y             3.7111039577      -50.7210509985       11.9089465630  MEMB      128             0.0000000000
     14369       128  POPE      C23             5.8801714929      -46.6059193087       14.7839502006  MEMB      128             0.0000000000
     14370       128  POPE      H3R             5.5200197570      -47.2103086027       15.6437907126  MEMB      128             0.0000000000
     14371       128  POPE      H3S             5.3482173073      -47.0176906100       13.8997612934  MEMB      128             0.0000000000
     14372       128  POPE      C24             5.3857155921      -45.1589793433       15.1113523845  MEMB      128             0.0000000000
     14373       128  POPE      H4R             5.7651223840      -44.8914622944       16.1207116411  MEMB      128             0.0000000000
     14374       128  POPE      H4S             4.2813804397      -45.2034703644       15.2244248635  MEMB      128             0.0000000000
     14375       128  POPE      C25             5.9615817511      -44.1233528545       14.0636639012  MEMB      128             0.0000000000
     14376       128  POPE      H5R             7.0717310703      -44.1609146786       14.0855395988  MEMB      128             0.0000000000
     14377       128  POPE      H5S             5.6175384377      -43.1533941165       14.4821560208  MEMB      128             0.0000000000
     14378       128  POPE      C26             5.4071848931      -44.4487250270       12.6502257886  MEMB      128             0.0000000000
     14379       128  POPE      H6R             4.3174626165      -44.6214723582       12.7805518351  MEMB      128             0.0000000000
     14380       128  POPE      H6S             5.8747174410      -45.4157714689       12.3664029210  MEMB      128             0.0000000000
     14381       128  POPE      C27             5.8543600280      -43.3226522464       11.6520213045  MEMB      128             0.0000000000
     14382       128  POPE      H7R             6.9160853235      -43.0119311806       11.5494892820  MEMB      128             0.0000000000
     14383       128  POPE      H7S             5.2205022045      -42.4574753313       11.9418729012  MEMB      128             0.0000000000
     14384       128  POPE      C28             5.3226138347      -43.5926013796       10.2165391236  MEMB      128             0.0000000000
     14385       128  POPE      H8R             5.5638581539      -42.7256130101        9.5650382924  MEMB      128             0.0000000000
     14386       128  POPE      H8S             4.2163181602      -43.6946647404       10.2127587020  MEMB      128             0.0000000000
     14387       128  POPE      C29             5.9678155389      -44.7627595110        9.5680813399  MEMB      128             0.0000000000
     14388       128  POPE      H91             6.1233268553      -45.5476086018       10.3229516302  MEMB      128             0.0000000000
     14389       128  POPE      C210            6.3387014649      -45.0666979197        8.2937626426  MEMB      128             0.0000000000
     14390       128  POPE      H101            6.8327886938      -46.0094544806        8.0161157649  MEMB      128             0.0000000000
     14391       128  POPE      C211            6.1759344421      -44.1688436799        7.0150147252  MEMB      128             0.0000000000
     14392       128  POPE      H11R            7.1645898195      -43.7013775021        6.8191643218  MEMB      128             0.0000000000
     14393       128  POPE      H11S            5.5281934470      -43.3095084554        7.2912315197  MEMB      128             0.0000000000
     14394       128  POPE      C212            5.6140974349      -44.8903933602        5.8254650709  MEMB      128             0.0000000000
     14395       128  POPE      H12R            6.3051985539      -45.7123718344        5.5407687777  MEMB      128             0.0000000000
     14396       128  POPE      H12S            5.4972842528      -44.3405482568        4.8671614579  MEMB      128             0.0000000000
     14397       128  POPE      C213            4.2046887679      -45.3800899590        6.0172848908  MEMB      128             0.0000000000
     14398       128  POPE      H13R            3.4077941225      -44.6327556848        6.2192042054  MEMB      128             0.0000000000
     14399       128  POPE      H13S            4.2208275344      -46.0675021915        6.8899392171  MEMB      128             0.0000000000
     14400       128  POPE      C214            3.6622284538      -46.1437199150        4.8572481160  MEMB      128             0.0000000000
     14401       128  POPE      H14R            4.1369161045      -47.1480739635        4.8409565388  MEMB      128             0.0000000000
     14402       128  POPE      H14S            4.0153617347      -45.6697378733        3.9165255375  MEMB      128             0.0000000000
     14403       128  POPE      C215            2.1295856370      -46.0472838007        4.7185459010  MEMB      128             0.0000000000
     14404       128  POPE      H15R            1.6595279326      -45.0861970888        5.0180107068  MEMB      128             0.0000000000
     14405       128  POPE      H15S            1.6841304748      -46.7528573988        5.4520693195  MEMB      128             0.0000000000
     14406       128  POPE      C216            1.6513506621      -46.4863973533        3.3121999848  MEMB      128             0.0000000000
     14407       128  POPE      H16R            2.0933401534      -45.7586551159        2.5985064937  MEMB      128             0.0000000000
     14408       128  POPE      H16S            0.5448089140      -46.4781206739        3.4112835528  MEMB      128             0.0000000000
     14409       128  POPE      C217            2.1560622894      -47.9745278758        2.8949326236  MEMB      128             0.0000000000
     14410       128  POPE      H17R            1.9768477022      -48.6339818242        3.7709035596  MEMB      128             0.0000000000
     14411       128  POPE      H17S            3.2449227448      -47.8257551889        2.7319295046  MEMB      128             0.0000000000
     14412       128  POPE      C218            1.5688349470      -48.3427516761        1.5637838183  MEMB      128             0.0000000000
     14413       128  POPE      H18R            2.0531046527      -49.2598571262        1.1653854198  MEMB      128             0.0000000000
     14414       128  POPE      H18S            1.8467691331      -47.4975101823        0.8984716763  MEMB      128             0.0000000000
     14415       128  POPE      H18T            0.4882509419      -48.5941843386        1.5051232051  MEMB      128             0.0000000000
     14416       128  POPE      C33             2.8141811939      -50.0606201404       13.8468406247  MEMB      128             0.0000000000
     14417       128  POPE      H3X             3.2702694250      -49.0550106188       13.9695353383  MEMB      128             0.0000000000
     14418       128  POPE      H3Y             2.8393299662      -50.4274778397       14.8952223420  MEMB      128             0.0000000000
     14419       128  POPE      C34             1.3222303465      -50.0292177292       13.4770436403  MEMB      128             0.0000000000
     14420       128  POPE      H4X             0.7351312433      -49.6914538555       14.3576974369  MEMB      128             0.0000000000
     14421       128  POPE      H4Y             0.9695923758      -51.0827003943       13.4651371470  MEMB      128             0.0000000000
     14422       128  POPE      C35             0.8868755544      -49.3540053634       12.1751526683  MEMB      128             0.0000000000
     14423       128  POPE      H5X            -0.1984238631      -49.5572576638       12.0521306362  MEMB      128             0.0000000000
     14424       128  POPE      H5Y             1.4808599718      -49.7035354507       11.3037557124  MEMB      128             0.0000000000
     14425       128  POPE      C36             0.8888200558      -47.8012357150       12.2054973990  MEMB      128             0.0000000000
     14426       128  POPE      H6X             0.6288548369      -47.6151881904       13.2695108720  MEMB      128             0.0000000000
     14427       128  POPE      H6Y             0.1531486463      -47.3988618096       11.4766599300  MEMB      128             0.0000000000
     14428       128  POPE      C37             2.1856175949      -46.9779704964       11.8968612790  MEMB      128             0.0000000000
     14429       128  POPE      H7X             3.0306365348      -47.3258591867       12.5287138845  MEMB      128             0.0000000000
     14430       128  POPE      H7Y             2.0118015037      -45.9224020370       12.1966676093  MEMB      128             0.0000000000
     14431       128  POPE      C38             2.7162368018      -47.0237848675       10.4233013269  MEMB      128             0.0000000000
     14432       128  POPE      H8X             3.2753731919      -46.0688232305       10.3246322100  MEMB      128             0.0000000000
     14433       128  POPE      H8Y             1.9239933290      -47.0823445421        9.6466154819  MEMB      128             0.0000000000
     14434       128  POPE      C39             3.6452464834      -48.2249503650       10.0956754448  MEMB      128             0.0000000000
     14435       128  POPE      H9X             2.9969923997      -49.1118826790       10.2613233536  MEMB      128             0.0000000000
     14436       128  POPE      H9Y             4.5026767631      -48.2756382215       10.8003494517  MEMB      128             0.0000000000
     14437       128  POPE      C310            4.0894049806      -48.2114405335        8.5978660591  MEMB      128             0.0000000000
     14438       128  POPE      H10X            4.8196930972      -47.3876976757        8.4480379974  MEMB      128             0.0000000000
     14439       128  POPE      H10Y            3.1559705624      -48.0546873666        8.0161017214  MEMB      128             0.0000000000
     14440       128  POPE      C311            4.6986605876      -49.5248976989        8.1081029558  MEMB      128             0.0000000000
     14441       128  POPE      H11X            4.3477763157      -50.4441565484        8.6240148713  MEMB      128             0.0000000000
     14442       128  POPE      H11Y            5.7879853343      -49.4942773282        8.3243323369  MEMB      128             0.0000000000
     14443       128  POPE      C312            4.4386937082      -49.6763519145        6.5743493945  MEMB      128             0.0000000000
     14444       128  POPE      H12X            4.8548895681      -48.7889157214        6.0513217275  MEMB      128             0.0000000000
     14445       128  POPE      H12Y            3.3477975806      -49.6988707748        6.3651620233  MEMB      128             0.0000000000
     14446       128  POPE      C313            5.2028192763      -50.8910816344        5.9467868146  MEMB      128             0.0000000000
     14447       128  POPE      H13X            4.7877983379      -51.8297304636        6.3722476084  MEMB      128             0.0000000000
     14448       128  POPE      H13Y            6.2863352143      -50.8046370566        6.1766591030  MEMB      128             0.0000000000
     14449       128  POPE      C314            5.0293941096      -51.0948419649        4.4782547415  MEMB      128             0.0000000000
     14450       128  POPE      H14X            5.9390587867      -51.6847717791        4.2357394126  MEMB      128             0.0000000000
     14451       128  POPE      H14Y            4.8801514027      -50.1691272486        3.8823522630  MEMB      128             0.0000000000
     14452       128  POPE      C315            3.9760823919      -52.1594637953        4.1847671102  MEMB      128             0.0000000000
     14453       128  POPE      H15X            2.9410492567      -52.0436147751        4.5715574457  MEMB      128             0.0000000000
     14454       128  POPE      H15Y            4.3118872808      -53.0356691088        4.7795949685  MEMB      128             0.0000000000
     14455       128  POPE      C316            3.8694149468      -52.5745109274        2.6706721997  MEMB      128             0.0000000000
     14456       128  POPE      H16X            3.6924492063      -51.6423453847        2.0926825877  MEMB      128             0.0000000000
     14457       128  POPE      H16Y            2.9930479014      -53.2397800474        2.5166625888  MEMB      128             0.0000000000
     14458       128  POPE      H16Z            4.7768581258      -53.1050613111        2.3109712762  MEMB      128             0.0000000000
     14459       129  POPE      N              37.3548192627      -16.0297561579       19.1341037620  MEMB      129             0.0000000000
     14460       129  POPE      HN1            38.1161817438      -16.7341204912       19.0579588355  MEMB      129             0.0000000000
     14461       129  POPE      HN2            36.6786153627      -16.2126591152       18.3654070070  MEMB      129             0.0000000000
     14462       129  POPE      HN3            37.7422738702      -15.0691387178       19.0408672528  MEMB      129             0.0000000000
     14463       129  POPE      C12            36.5744254353      -15.9699344333       20.3981155790  MEMB      129             0.0000000000
     14464       129  POPE      H12A           37.1475991174      -15.3995421331       21.1599854166  MEMB      129             0.0000000000
     14465       129  POPE      H12B           36.5783566638      -16.9689819265       20.8841297504  MEMB      129             0.0000000000
     14466       129  POPE      C11            35.2127822698      -15.3258984459       20.3896538645  MEMB      129             0.0000000000
     14467       129  POPE      H11A           35.2829903717      -14.3437762428       19.8750396990  MEMB      129             0.0000000000
     14468       129  POPE      H11B           34.7659918516      -15.1781950622       21.3960746445  MEMB      129             0.0000000000
     14469       129  POPE      P              33.8067606807      -16.3455382063       18.3909013757  MEMB      129             0.0000000000
     14470       129  POPE      O13            32.3937903186      -16.6979467758       18.3349519461  MEMB      129             0.0000000000
     14471       129  POPE      O14            34.7273769935      -17.1841522866       17.6989831708  MEMB      129             0.0000000000
     14472       129  POPE      O11            34.1383894720      -14.8992377117       17.8144856062  MEMB      129             0.0000000000
     14473       129  POPE      O12            34.2851163663      -16.3062807798       19.8388046948  MEMB      129             0.0000000000
     14474       129  POPE      C1             33.1732260041      -13.8611831140       17.7251921457  MEMB      129             0.0000000000
     14475       129  POPE      HA             33.4720124296      -13.0315089461       18.4009794847  MEMB      129             0.0000000000
     14476       129  POPE      HB             32.2144254391      -14.1616968625       18.1992322217  MEMB      129             0.0000000000
     14477       129  POPE      C2             32.7471144351      -13.5094987798       16.2727239079  MEMB      129             0.0000000000
     14478       129  POPE      HS             31.6513012453      -13.6451773754       16.1498182947  MEMB      129             0.0000000000
     14479       129  POPE      O21            33.5266072915      -14.2733189499       15.2768599769  MEMB      129             0.0000000000
     14480       129  POPE      C21            32.8936645085      -14.4450062126       14.1190732699  MEMB      129             0.0000000000
     14481       129  POPE      O22            31.8679100837      -13.8716807219       13.7419306985  MEMB      129             0.0000000000
     14482       129  POPE      C22            33.7687561517      -15.3267674790       13.2256666868  MEMB      129             0.0000000000
     14483       129  POPE      H2R            33.9081306993      -16.3151017245       13.7136127220  MEMB      129             0.0000000000
     14484       129  POPE      H2S            34.7873535539      -14.8916259015       13.1394577443  MEMB      129             0.0000000000
     14485       129  POPE      C3             33.0445638025      -11.9760447840       16.1104342369  MEMB      129             0.0000000000
     14486       129  POPE      HX             32.4858203918      -11.3351186377       16.8255150884  MEMB      129             0.0000000000
     14487       129  POPE      HY             32.7285360584      -11.7969230101       15.0604995820  MEMB      129             0.0000000000
     14488       129  POPE      O31            34.3331441783      -11.5437799854       16.2641882636  MEMB      129             0.0000000000
     14489       129  POPE      C31            35.0465037322      -11.2372300120       15.1974860245  MEMB      129             0.0000000000
     14490       129  POPE      O32            34.6200576558      -11.0434304231       14.0793007595  MEMB      129             0.0000000000
     14491       129  POPE      C32            36.5108012847      -11.0606978546       15.6615004200  MEMB      129             0.0000000000
     14492       129  POPE      H2X            36.5770113509      -11.4992142404       16.6801468017  MEMB      129             0.0000000000
     14493       129  POPE      H2Y            36.5286644232       -9.9546982358       15.7652654260  MEMB      129             0.0000000000
     14494       129  POPE      C23            33.0389933081      -15.5117404647       11.8276906140  MEMB      129             0.0000000000
     14495       129  POPE      H3R            33.0058959164      -14.4621715792       11.4648811168  MEMB      129             0.0000000000
     14496       129  POPE      H3S            31.9711371700      -15.7223276518       12.0505298404  MEMB      129             0.0000000000
     14497       129  POPE      C24            33.7980245120      -16.3428128019       10.7877976786  MEMB      129             0.0000000000
     14498       129  POPE      H4R            34.1399592610      -17.2905673363       11.2559462119  MEMB      129             0.0000000000
     14499       129  POPE      H4S            34.6869152075      -15.7047829850       10.5951527333  MEMB      129             0.0000000000
     14500       129  POPE      C25            33.1741964236      -16.7912402223        9.5206017570  MEMB      129             0.0000000000
     14501       129  POPE      H5R            32.1889245558      -17.2587936933        9.7326257335  MEMB      129             0.0000000000
     14502       129  POPE      H5S            33.8630228224      -17.5083093020        9.0249695117  MEMB      129             0.0000000000
     14503       129  POPE      C26            32.9097241733      -15.6157718928        8.4891769505  MEMB      129             0.0000000000
     14504       129  POPE      H6R            33.9630260440      -15.2698583956        8.4169285082  MEMB      129             0.0000000000
     14505       129  POPE      H6S            32.3749257500      -14.8415906907        9.0799014359  MEMB      129             0.0000000000
     14506       129  POPE      C27            32.2609243653      -16.1437757952        7.2238240591  MEMB      129             0.0000000000
     14507       129  POPE      H7R            31.3845122413      -16.7985311082        7.4175214807  MEMB      129             0.0000000000
     14508       129  POPE      H7S            32.9904304088      -16.7182405730        6.6137978358  MEMB      129             0.0000000000
     14509       129  POPE      C28            31.7281608725      -15.0275835660        6.2233268550  MEMB      129             0.0000000000
     14510       129  POPE      H8R            30.8854645125      -14.4776648310        6.6942551588  MEMB      129             0.0000000000
     14511       129  POPE      H8S            31.3630508055      -15.5975818534        5.3423515825  MEMB      129             0.0000000000
     14512       129  POPE      C29            32.6723399257      -13.9454156493        5.7844633993  MEMB      129             0.0000000000
     14513       129  POPE      H91            33.1338620635      -13.4153566967        6.6306514952  MEMB      129             0.0000000000
     14514       129  POPE      C210           32.9197238152      -13.5683089216        4.5528616621  MEMB      129             0.0000000000
     14515       129  POPE      H101           33.6255037884      -12.7298799234        4.4584633330  MEMB      129             0.0000000000
     14516       129  POPE      C211           32.2592118636      -14.1180175480        3.2774767700  MEMB      129             0.0000000000
     14517       129  POPE      H11R           32.0322377851      -13.2610133878        2.6078896347  MEMB      129             0.0000000000
     14518       129  POPE      H11S           31.3218803180      -14.6245983868        3.5922885315  MEMB      129             0.0000000000
     14519       129  POPE      C212           33.1598201088      -15.1123144277        2.4769776553  MEMB      129             0.0000000000
     14520       129  POPE      H12R           33.2809814047      -16.0123944462        3.1168970919  MEMB      129             0.0000000000
     14521       129  POPE      H12S           34.1266271462      -14.5890408676        2.3163854271  MEMB      129             0.0000000000
     14522       129  POPE      C213           32.6277163125      -15.3898244578        1.1242847867  MEMB      129             0.0000000000
     14523       129  POPE      H13R           32.7235316033      -14.5617102429        0.3898689078  MEMB      129             0.0000000000
     14524       129  POPE      H13S           31.5204075547      -15.4363452118        1.2019010975  MEMB      129             0.0000000000
     14525       129  POPE      C214           33.1578901226      -16.7428655344        0.5855352799  MEMB      129             0.0000000000
     14526       129  POPE      H14R           33.1137317114      -17.4361260273        1.4525752566  MEMB      129             0.0000000000
     14527       129  POPE      H14S           34.2392774641      -16.6784522440        0.3390112200  MEMB      129             0.0000000000
     14528       129  POPE      C215           32.3589571134      -17.1001386917       -0.6456130329  MEMB      129             0.0000000000
     14529       129  POPE      H15R           32.2763341531      -16.3792379650       -1.4869195162  MEMB      129             0.0000000000
     14530       129  POPE      H15S           31.3035942639      -17.2872927301       -0.3532043736  MEMB      129             0.0000000000
     14531       129  POPE      C216           32.9003212804      -18.2932543485       -1.4019042581  MEMB      129             0.0000000000
     14532       129  POPE      H16R           32.0635736494      -18.9688452193       -1.6807446510  MEMB      129             0.0000000000
     14533       129  POPE      H16S           33.5972434453      -18.7658649860       -0.6771561675  MEMB      129             0.0000000000
     14534       129  POPE      C217           33.7026603130      -17.9664888374       -2.5416049227  MEMB      129             0.0000000000
     14535       129  POPE      H17R           34.5164381622      -17.2368010825       -2.3425014657  MEMB      129             0.0000000000
     14536       129  POPE      H17S           32.9792247709      -17.5259718544       -3.2605674775  MEMB      129             0.0000000000
     14537       129  POPE      C218           34.2902362612      -19.1480149119       -3.2620189204  MEMB      129             0.0000000000
     14538       129  POPE      H18R           33.5424697261      -19.9323401654       -3.5069690117  MEMB      129             0.0000000000
     14539       129  POPE      H18S           35.0682551312      -19.5897951938       -2.6033556674  MEMB      129             0.0000000000
     14540       129  POPE      H18T           34.7398933212      -18.9546085737       -4.2593786380  MEMB      129             0.0000000000
     14541       129  POPE      C33            37.3961038422      -11.5988802758       14.6878123961  MEMB      129             0.0000000000
     14542       129  POPE      H3X            38.4759120152      -11.6487631723       14.9444189252  MEMB      129             0.0000000000
     14543       129  POPE      H3Y            37.3336629266      -11.2301256186       13.6416566506  MEMB      129             0.0000000000
     14544       129  POPE      C34            37.2013283670      -13.1425090348       14.4104955689  MEMB      129             0.0000000000
     14545       129  POPE      H4X            36.4765819735      -13.1533255223       13.5685059455  MEMB      129             0.0000000000
     14546       129  POPE      H4Y            36.7397931965      -13.5931600738       15.3150509793  MEMB      129             0.0000000000
     14547       129  POPE      C35            38.2861251882      -13.9333812580       13.8435860687  MEMB      129             0.0000000000
     14548       129  POPE      H5X            38.9632841712      -13.9941782469       14.7222670138  MEMB      129             0.0000000000
     14549       129  POPE      H5Y            38.6736428061      -13.2467862307       13.0608096886  MEMB      129             0.0000000000
     14550       129  POPE      C36            37.8836637698      -15.3194086612       13.3495042293  MEMB      129             0.0000000000
     14551       129  POPE      H6X            36.9789817800      -15.5332062927       13.9579130494  MEMB      129             0.0000000000
     14552       129  POPE      H6Y            38.7207103016      -15.9637042772       13.6938257181  MEMB      129             0.0000000000
     14553       129  POPE      C37            37.6235652891      -15.3845238918       11.8829604514  MEMB      129             0.0000000000
     14554       129  POPE      H7X            36.8464267759      -14.6571815026       11.5646053679  MEMB      129             0.0000000000
     14555       129  POPE      H7Y            37.3388775006      -16.4170099577       11.5875853704  MEMB      129             0.0000000000
     14556       129  POPE      C38            38.7282401647      -15.0789956487       10.8568303990  MEMB      129             0.0000000000
     14557       129  POPE      H8X            39.6088409950      -15.7519902360       10.9339122978  MEMB      129             0.0000000000
     14558       129  POPE      H8Y            39.1078623032      -14.0387652491       10.9469901028  MEMB      129             0.0000000000
     14559       129  POPE      C39            38.2096687229      -15.1123121666        9.3500649229  MEMB      129             0.0000000000
     14560       129  POPE      H9X            39.0146855736      -14.7072649118        8.7002920256  MEMB      129             0.0000000000
     14561       129  POPE      H9Y            37.4186929952      -14.3327608521        9.3813412223  MEMB      129             0.0000000000
     14562       129  POPE      C310           37.5678982499      -16.4357212627        8.7432077302  MEMB      129             0.0000000000
     14563       129  POPE      H10X           36.8734010602      -16.7905434794        9.5344697356  MEMB      129             0.0000000000
     14564       129  POPE      H10Y           38.4213879633      -17.1275594393        8.5781730564  MEMB      129             0.0000000000
     14565       129  POPE      C311           36.7688408191      -16.1689340288        7.4937691239  MEMB      129             0.0000000000
     14566       129  POPE      H11X           37.4845657967      -15.7297174008        6.7663433264  MEMB      129             0.0000000000
     14567       129  POPE      H11Y           35.8534205374      -15.5465497892        7.5884513910  MEMB      129             0.0000000000
     14568       129  POPE      C312           36.4821600354      -17.4616891007        6.6521867432  MEMB      129             0.0000000000
     14569       129  POPE      H12X           35.8864702084      -18.0568115124        7.3769648694  MEMB      129             0.0000000000
     14570       129  POPE      H12Y           37.4424514341      -18.0024084442        6.5115301953  MEMB      129             0.0000000000
     14571       129  POPE      C313           35.7730823638      -17.0765740247        5.3188106481  MEMB      129             0.0000000000
     14572       129  POPE      H13X           35.1153391692      -16.2096614546        5.5427693166  MEMB      129             0.0000000000
     14573       129  POPE      H13Y           35.2122994914      -17.9966911896        5.0482048189  MEMB      129             0.0000000000
     14574       129  POPE      C314           36.8094701098      -16.7650169062        4.2154757404  MEMB      129             0.0000000000
     14575       129  POPE      H14X           37.4601216491      -17.6501062077        4.0493728447  MEMB      129             0.0000000000
     14576       129  POPE      H14Y           37.2147013039      -15.8398231775        4.6782128731  MEMB      129             0.0000000000
     14577       129  POPE      C315           36.1801218916      -16.2007683167        2.9301960131  MEMB      129             0.0000000000
     14578       129  POPE      H15X           35.9381758613      -15.1298837033        3.1004584928  MEMB      129             0.0000000000
     14579       129  POPE      H15Y           35.1557034543      -16.6280699614        2.8822251991  MEMB      129             0.0000000000
     14580       129  POPE      C316           36.9725333904      -16.4919510925        1.7121356610  MEMB      129             0.0000000000
     14581       129  POPE      H16X           36.3661985666      -16.6182594358        0.7897886496  MEMB      129             0.0000000000
     14582       129  POPE      H16Y           37.5446418487      -17.4402596176        1.8000208197  MEMB      129             0.0000000000
     14583       129  POPE      H16Z           37.8841090644      -15.8864328251        1.5205678029  MEMB      129             0.0000000000
     14584       130  POPC      N             -24.1102587785       52.1528320967       19.9325475896  MEMB      130             0.0000000000
     14585       130  POPC      C12           -24.9788513635       52.7862107168       18.9182606860  MEMB      130             0.0000000000
     14586       130  POPC      H12A          -25.7965475460       52.0918417447       18.7932619179  MEMB      130             0.0000000000
     14587       130  POPC      H12B          -24.5026000572       52.7550495718       17.9494399389  MEMB      130             0.0000000000
     14588       130  POPC      C13           -24.7397784228       52.2998222413       21.2993042733  MEMB      130             0.0000000000
     14589       130  POPC      H13A          -24.2583305011       51.7517087792       22.0956583335  MEMB      130             0.0000000000
     14590       130  POPC      H13B          -24.8994657568       53.3324904676       21.5722444425  MEMB      130             0.0000000000
     14591       130  POPC      H13C          -25.7268780837       51.8802932641       21.4259125435  MEMB      130             0.0000000000
     14592       130  POPC      C14           -23.9620346426       50.7012450577       19.6096251836  MEMB      130             0.0000000000
     14593       130  POPC      H14A          -23.1768947035       50.2482406518       20.1967726605  MEMB      130             0.0000000000
     14594       130  POPC      H14B          -24.8927916409       50.1555544323       19.6577199327  MEMB      130             0.0000000000
     14595       130  POPC      H14C          -23.7643068066       50.6461189317       18.5493116355  MEMB      130             0.0000000000
     14596       130  POPC      C15           -22.7675358158       52.8466043025       19.9727005007  MEMB      130             0.0000000000
     14597       130  POPC      H15A          -22.0492414232       52.5168080494       20.7086949416  MEMB      130             0.0000000000
     14598       130  POPC      H15B          -22.8705639429       53.9173169880       20.0694447729  MEMB      130             0.0000000000
     14599       130  POPC      H15C          -22.2749091383       52.7980606617       19.0128241207  MEMB      130             0.0000000000
     14600       130  POPC      C11           -25.6556853992       54.1759344860       19.1354332642  MEMB      130             0.0000000000
     14601       130  POPC      H11A          -26.2685967740       54.0624079112       20.0550920344  MEMB      130             0.0000000000
     14602       130  POPC      H11B          -26.3975500507       54.3491647833       18.3267620947  MEMB      130             0.0000000000
     14603       130  POPC      P             -24.1385905751       55.9149101480       18.0143672432  MEMB      130             0.0000000000
     14604       130  POPC      O13           -22.6803346429       55.8643127899       18.0215687031  MEMB      130             0.0000000000
     14605       130  POPC      O14           -24.9391933059       57.1927588320       18.0365873111  MEMB      130             0.0000000000
     14606       130  POPC      O12           -24.6698386896       55.0986883468       19.2403778422  MEMB      130             0.0000000000
     14607       130  POPC      O11           -24.6186880164       55.0927050735       16.8192274040  MEMB      130             0.0000000000
     14608       130  POPC      C1            -23.7660583382       54.6992476856       15.7150524234  MEMB      130             0.0000000000
     14609       130  POPC      HA            -24.3892092783       54.0056550163       15.1109554424  MEMB      130             0.0000000000
     14610       130  POPC      HB            -22.8620700480       54.1133797024       15.9868703115  MEMB      130             0.0000000000
     14611       130  POPC      C2            -23.3769296318       55.8484687286       14.7857731453  MEMB      130             0.0000000000
     14612       130  POPC      HS            -22.8397549140       56.6307191028       15.3635699321  MEMB      130             0.0000000000
     14613       130  POPC      O21           -24.6270043565       56.4940237078       14.2678817547  MEMB      130             0.0000000000
     14614       130  POPC      C21           -24.7034629373       57.8363417625       14.0458163454  MEMB      130             0.0000000000
     14615       130  POPC      O22           -23.7462260309       58.5233563819       13.9449903656  MEMB      130             0.0000000000
     14616       130  POPC      C22           -26.0966429769       58.3227215004       13.6945648069  MEMB      130             0.0000000000
     14617       130  POPC      H2R           -26.1778969236       59.4185769829       13.5307971519  MEMB      130             0.0000000000
     14618       130  POPC      H2S           -26.6455001657       58.0543796909       14.6225029895  MEMB      130             0.0000000000
     14619       130  POPC      C3            -22.4736017467       55.4137319853       13.5733251633  MEMB      130             0.0000000000
     14620       130  POPC      HX            -21.5181812642       54.9849170274       13.9442841669  MEMB      130             0.0000000000
     14621       130  POPC      HY            -22.1194361169       56.3460145665       13.0836957177  MEMB      130             0.0000000000
     14622       130  POPC      O31           -23.0599697036       54.4651144689       12.7079105946  MEMB      130             0.0000000000
     14623       130  POPC      C31           -22.3659802506       54.3258333400       11.6547385180  MEMB      130             0.0000000000
     14624       130  POPC      O32           -21.2872030008       54.8424243286       11.4437731124  MEMB      130             0.0000000000
     14625       130  POPC      C32           -23.1663777728       53.3687126518       10.6230471987  MEMB      130             0.0000000000
     14626       130  POPC      H2X           -23.7715289822       52.6818919071       11.2526426771  MEMB      130             0.0000000000
     14627       130  POPC      H2Y           -22.4447766860       52.8873015678        9.9288884709  MEMB      130             0.0000000000
     14628       130  POPC      C23           -26.7448315452       57.6504663516       12.4843562682  MEMB      130             0.0000000000
     14629       130  POPC      H3R           -27.6104280944       58.2912029734       12.2113726793  MEMB      130             0.0000000000
     14630       130  POPC      H3S           -27.0157006403       56.6100046926       12.7643392354  MEMB      130             0.0000000000
     14631       130  POPC      C24           -25.9715254875       57.6855194769       11.1895823913  MEMB      130             0.0000000000
     14632       130  POPC      H4R           -25.3204059305       56.7862776027       11.2311598358  MEMB      130             0.0000000000
     14633       130  POPC      H4S           -25.3813779208       58.6261910008       11.2239879679  MEMB      130             0.0000000000
     14634       130  POPC      C25           -26.8436824385       57.5886411998        9.9273523852  MEMB      130             0.0000000000
     14635       130  POPC      H5R           -27.6334692693       58.3437053503        9.7262648993  MEMB      130             0.0000000000
     14636       130  POPC      H5S           -27.3368108391       56.5962506488       10.0067654483  MEMB      130             0.0000000000
     14637       130  POPC      C26           -26.0711258136       57.3684676830        8.6771643143  MEMB      130             0.0000000000
     14638       130  POPC      H6R           -26.4950069660       56.6442553688        7.9490417739  MEMB      130             0.0000000000
     14639       130  POPC      H6S           -25.1020643341       56.8955377960        8.9447056908  MEMB      130             0.0000000000
     14640       130  POPC      C27           -25.7291885207       58.7070010848        7.9043182053  MEMB      130             0.0000000000
     14641       130  POPC      H7R           -25.2866008299       59.3494721375        8.6953095878  MEMB      130             0.0000000000
     14642       130  POPC      H7S           -26.7745648684       59.0261557609        7.7051956268  MEMB      130             0.0000000000
     14643       130  POPC      C28           -24.7972658878       58.4649126785        6.6906050977  MEMB      130             0.0000000000
     14644       130  POPC      H8R           -25.1461977666       59.3198799749        6.0728689870  MEMB      130             0.0000000000
     14645       130  POPC      H8S           -25.1139027309       57.5200538674        6.1993785782  MEMB      130             0.0000000000
     14646       130  POPC      C29           -23.3345065546       58.6971492694        7.0006735630  MEMB      130             0.0000000000
     14647       130  POPC      H91           -23.0415646834       59.7511312776        7.1160293475  MEMB      130             0.0000000000
     14648       130  POPC      C210          -22.3820613631       57.7692091955        7.0577381830  MEMB      130             0.0000000000
     14649       130  POPC      H101          -21.3892018016       58.1237993129        7.3715783329  MEMB      130             0.0000000000
     14650       130  POPC      C211          -22.5728479791       56.2878096390        6.8134503791  MEMB      130             0.0000000000
     14651       130  POPC      H11R          -23.6208776057       56.0966669803        6.4981421533  MEMB      130             0.0000000000
     14652       130  POPC      H11S          -22.3401793715       55.7458290640        7.7549613218  MEMB      130             0.0000000000
     14653       130  POPC      C212          -21.7824840713       55.6755264967        5.6617189319  MEMB      130             0.0000000000
     14654       130  POPC      H12R          -21.9437747542       54.5774816048        5.6106929569  MEMB      130             0.0000000000
     14655       130  POPC      H12S          -20.7290031049       55.8783367925        5.9504529689  MEMB      130             0.0000000000
     14656       130  POPC      C213          -22.0506546414       56.1915847300        4.2711606497  MEMB      130             0.0000000000
     14657       130  POPC      H13R          -21.5207951984       55.4265268977        3.6643194854  MEMB      130             0.0000000000
     14658       130  POPC      H13S          -21.5874673209       57.2002650325        4.2227615080  MEMB      130             0.0000000000
     14659       130  POPC      C214          -23.5378822821       56.3039214895        3.8113284286  MEMB      130             0.0000000000
     14660       130  POPC      H14R          -24.1213942936       56.4913803092        4.7379851492  MEMB      130             0.0000000000
     14661       130  POPC      H14S          -23.8624583010       55.3658881670        3.3122638961  MEMB      130             0.0000000000
     14662       130  POPC      C215          -23.6186068923       57.4800443193        2.7689120455  MEMB      130             0.0000000000
     14663       130  POPC      H15R          -22.7223030129       57.2985879401        2.1380127171  MEMB      130             0.0000000000
     14664       130  POPC      H15S          -23.3363399515       58.3566266500        3.3904020994  MEMB      130             0.0000000000
     14665       130  POPC      C216          -24.9282352573       57.6692999342        1.9817510190  MEMB      130             0.0000000000
     14666       130  POPC      H16R          -25.1220638421       56.6729270241        1.5300957204  MEMB      130             0.0000000000
     14667       130  POPC      H16S          -24.7113725836       58.4164044652        1.1885761510  MEMB      130             0.0000000000
     14668       130  POPC      C217          -26.1115199599       58.0009749384        2.8081585359  MEMB      130             0.0000000000
     14669       130  POPC      H17R          -25.8304153026       58.8792438346        3.4277905043  MEMB      130             0.0000000000
     14670       130  POPC      H17S          -26.1708082514       57.0687641404        3.4096465011  MEMB      130             0.0000000000
     14671       130  POPC      C218          -27.4700201088       58.2660968598        2.0910308545  MEMB      130             0.0000000000
     14672       130  POPC      H18R          -28.2717723333       58.2761167465        2.8600670915  MEMB      130             0.0000000000
     14673       130  POPC      H18S          -27.5647476259       57.4979108721        1.2940143301  MEMB      130             0.0000000000
     14674       130  POPC      H18T          -27.4212773566       59.2380721196        1.5551132265  MEMB      130             0.0000000000
     14675       130  POPC      C33           -24.3153462728       54.2791878526       10.0253864474  MEMB      130             0.0000000000
     14676       130  POPC      H3X           -23.8335457367       55.1874424046        9.6043604564  MEMB      130             0.0000000000
     14677       130  POPC      H3Y           -24.9542986006       54.5525008416       10.8921974770  MEMB      130             0.0000000000
     14678       130  POPC      C34           -25.2827222154       53.4705931062        9.1169985118  MEMB      130             0.0000000000
     14679       130  POPC      H4X           -26.2360765318       53.9683444909        8.8382869075  MEMB      130             0.0000000000
     14680       130  POPC      H4Y           -25.5919902821       52.5263994329        9.6141626353  MEMB      130             0.0000000000
     14681       130  POPC      C35           -24.5268940897       53.0242206029        7.8418916811  MEMB      130             0.0000000000
     14682       130  POPC      H5X           -23.8337970902       52.1878806628        8.0752861399  MEMB      130             0.0000000000
     14683       130  POPC      H5Y           -23.8843601134       53.8082706569        7.3872083420  MEMB      130             0.0000000000
     14684       130  POPC      C36           -25.4713880947       52.5808959803        6.7148974532  MEMB      130             0.0000000000
     14685       130  POPC      H6X           -26.1732486596       51.8747238143        7.2078818875  MEMB      130             0.0000000000
     14686       130  POPC      H6Y           -24.8172311541       51.8678681747        6.1690124376  MEMB      130             0.0000000000
     14687       130  POPC      C37           -26.2161229024       53.7197245283        5.9155817153  MEMB      130             0.0000000000
     14688       130  POPC      H7X           -25.5191194641       54.2484355575        5.2307670977  MEMB      130             0.0000000000
     14689       130  POPC      H7Y           -26.8452811966       54.3638606569        6.5664043245  MEMB      130             0.0000000000
     14690       130  POPC      C38           -27.3117100990       53.2108098118        4.9060462021  MEMB      130             0.0000000000
     14691       130  POPC      H8X           -27.7777672005       54.0827565946        4.3992710543  MEMB      130             0.0000000000
     14692       130  POPC      H8Y           -28.0820310299       52.9045545978        5.6457313125  MEMB      130             0.0000000000
     14693       130  POPC      C39           -26.9735477640       52.0900060301        3.9816320004  MEMB      130             0.0000000000
     14694       130  POPC      H9X           -27.8894188723       51.6850468897        3.5004773133  MEMB      130             0.0000000000
     14695       130  POPC      H9Y           -26.5709571737       51.1788964357        4.4736890351  MEMB      130             0.0000000000
     14696       130  POPC      C310          -25.9774904100       52.5264339844        2.8746514993  MEMB      130             0.0000000000
     14697       130  POPC      H10X          -25.1440021376       53.0550684976        3.3847136260  MEMB      130             0.0000000000
     14698       130  POPC      H10Y          -26.4161064830       53.3776962918        2.3113662755  MEMB      130             0.0000000000
     14699       130  POPC      C311          -25.4075997670       51.3779739430        2.0194827025  MEMB      130             0.0000000000
     14700       130  POPC      H11X          -26.3030384459       50.7676626546        1.7744710677  MEMB      130             0.0000000000
     14701       130  POPC      H11Y          -24.7834712269       50.7097911700        2.6506055205  MEMB      130             0.0000000000
     14702       130  POPC      C312          -24.6165930690       51.6649478576        0.7706265186  MEMB      130             0.0000000000
     14703       130  POPC      H12X          -25.1170049297       52.3042249905        0.0121850559  MEMB      130             0.0000000000
     14704       130  POPC      H12Y          -24.5600151480       50.6410230771        0.3431961159  MEMB      130             0.0000000000
     14705       130  POPC      C313          -23.2358969102       52.2932299246        0.9347593465  MEMB      130             0.0000000000
     14706       130  POPC      H13X          -22.6494950682       51.6911786743        1.6613874201  MEMB      130             0.0000000000
     14707       130  POPC      H13Y          -23.2876307145       53.3106946424        1.3779404653  MEMB      130             0.0000000000
     14708       130  POPC      C314          -22.5668115860       52.6178754084       -0.3308557168  MEMB      130             0.0000000000
     14709       130  POPC      H14X          -23.2266417849       53.3667071540       -0.8189106998  MEMB      130             0.0000000000
     14710       130  POPC      H14Y          -22.4500994039       51.7255224416       -0.9823203576  MEMB      130             0.0000000000
     14711       130  POPC      C315          -21.2140699809       53.3509757007       -0.1712281367  MEMB      130             0.0000000000
     14712       130  POPC      H15X          -21.0044244635       53.6634728613        0.8741020403  MEMB      130             0.0000000000
     14713       130  POPC      H15Y          -21.1787710672       54.2386605500       -0.8383801462  MEMB      130             0.0000000000
     14714       130  POPC      C316          -19.9112311660       52.4257567025       -0.4936726044  MEMB      130             0.0000000000
     14715       130  POPC      H16X          -19.8848919504       51.5267381794        0.1585479752  MEMB      130             0.0000000000
     14716       130  POPC      H16Y          -18.9865006937       52.9986625818       -0.2679005930  MEMB      130             0.0000000000
     14717       130  POPC      H16Z          -19.9123749805       52.1498347226       -1.5698635376  MEMB      130             0.0000000000
     14718       131  POPE      N              -3.2712613093       43.7521871991       18.4620274913  MEMB      131             0.0000000000
     14719       131  POPE      HN1            -2.8007390513       44.6286991025       18.7652363520  MEMB      131             0.0000000000
     14720       131  POPE      HN2            -3.1969278459       43.6610149081       17.4287017083  MEMB      131             0.0000000000
     14721       131  POPE      HN3            -4.2986376872       43.8241024690       18.6066842446  MEMB      131             0.0000000000
     14722       131  POPE      C12            -2.8116079845       42.5181299090       19.2166786659  MEMB      131             0.0000000000
     14723       131  POPE      H12A           -2.7589535947       42.7656331517       20.2984784229  MEMB      131             0.0000000000
     14724       131  POPE      H12B           -1.7911870844       42.2893275334       18.8415632231  MEMB      131             0.0000000000
     14725       131  POPE      C11            -3.7616814567       41.3383330483       18.9358054736  MEMB      131             0.0000000000
     14726       131  POPE      H11A           -3.8205006865       41.1385008621       17.8445088645  MEMB      131             0.0000000000
     14727       131  POPE      H11B           -4.8362593956       41.5214758773       19.1504263256  MEMB      131             0.0000000000
     14728       131  POPE      P              -2.4599336909       39.0340974773       19.0947652209  MEMB      131             0.0000000000
     14729       131  POPE      O13            -2.0780916412       38.1154188199       20.2191790513  MEMB      131             0.0000000000
     14730       131  POPE      O14            -1.3987649546       39.6574362093       18.2776975473  MEMB      131             0.0000000000
     14731       131  POPE      O11            -3.4102318864       38.3069576057       18.1147282421  MEMB      131             0.0000000000
     14732       131  POPE      O12            -3.3846985973       40.1656605280       19.6791183109  MEMB      131             0.0000000000
     14733       131  POPE      C1             -4.4589316413       37.5716130186       18.7070361634  MEMB      131             0.0000000000
     14734       131  POPE      HA             -4.8971379781       38.1477159284       19.5498894422  MEMB      131             0.0000000000
     14735       131  POPE      HB             -4.0347790943       36.6430246036       19.1453728970  MEMB      131             0.0000000000
     14736       131  POPE      C2             -5.5180831533       37.2164904786       17.6409032008  MEMB      131             0.0000000000
     14737       131  POPE      HS             -5.9806993299       36.2463064570       17.9220619192  MEMB      131             0.0000000000
     14738       131  POPE      O21            -5.0286328752       37.1115117256       16.2471564515  MEMB      131             0.0000000000
     14739       131  POPE      C21            -3.9971627685       36.2525011731       16.0182020247  MEMB      131             0.0000000000
     14740       131  POPE      O22            -3.6660430222       35.3188768196       16.7316098694  MEMB      131             0.0000000000
     14741       131  POPE      C22            -3.2382784719       36.6773162446       14.7056179198  MEMB      131             0.0000000000
     14742       131  POPE      H2R            -3.3105634503       35.8194287851       14.0033893948  MEMB      131             0.0000000000
     14743       131  POPE      H2S            -2.1799805683       36.9126762325       14.9483774738  MEMB      131             0.0000000000
     14744       131  POPE      C3             -6.5904927171       38.3399891560       17.5374345285  MEMB      131             0.0000000000
     14745       131  POPE      HX             -6.9874283349       38.4554348696       18.5686644818  MEMB      131             0.0000000000
     14746       131  POPE      HY             -7.4634649999       37.9830527800       16.9502059986  MEMB      131             0.0000000000
     14747       131  POPE      O31            -6.1653881717       39.6520988744       17.1592675581  MEMB      131             0.0000000000
     14748       131  POPE      C31            -6.8505318058       40.2738465653       16.1928742706  MEMB      131             0.0000000000
     14749       131  POPE      O32            -7.8465234914       39.7993793545       15.6881932055  MEMB      131             0.0000000000
     14750       131  POPE      C32            -6.2700764981       41.6488016095       15.7964756665  MEMB      131             0.0000000000
     14751       131  POPE      H2X            -5.5869327101       41.9220200927       16.6289340932  MEMB      131             0.0000000000
     14752       131  POPE      H2Y            -7.1288362645       42.3402554837       15.6595647620  MEMB      131             0.0000000000
     14753       131  POPE      C23            -3.9319087245       37.8567527092       13.8689604421  MEMB      131             0.0000000000
     14754       131  POPE      H3R            -4.0878908277       38.7830020486       14.4623008357  MEMB      131             0.0000000000
     14755       131  POPE      H3S            -4.9647873861       37.5286847668       13.6243104400  MEMB      131             0.0000000000
     14756       131  POPE      C24            -3.3481119695       38.1378592384       12.4703798333  MEMB      131             0.0000000000
     14757       131  POPE      H4R            -4.1337193150       38.7861226350       12.0266491149  MEMB      131             0.0000000000
     14758       131  POPE      H4S            -3.2008577578       37.1824409446       11.9228279250  MEMB      131             0.0000000000
     14759       131  POPE      C25            -1.9896811786       38.9081022501       12.4105461627  MEMB      131             0.0000000000
     14760       131  POPE      H5R            -1.1722519675       38.4206529641       12.9837161109  MEMB      131             0.0000000000
     14761       131  POPE      H5S            -2.1315102088       39.8769795005       12.9354105010  MEMB      131             0.0000000000
     14762       131  POPE      C26            -1.4924285107       39.3370248187       11.0168974063  MEMB      131             0.0000000000
     14763       131  POPE      H6R            -1.5657165657       38.4592559882       10.3397924215  MEMB      131             0.0000000000
     14764       131  POPE      H6S            -0.4602726846       39.7479528775       11.0275480398  MEMB      131             0.0000000000
     14765       131  POPE      C27            -2.3896753840       40.4040414581       10.3824770994  MEMB      131             0.0000000000
     14766       131  POPE      H7R            -2.3217913990       41.3057773431       11.0279108918  MEMB      131             0.0000000000
     14767       131  POPE      H7S            -3.4558338919       40.0923089053       10.4036878574  MEMB      131             0.0000000000
     14768       131  POPE      C28            -1.9964670068       40.8433467900        8.9895900572  MEMB      131             0.0000000000
     14769       131  POPE      H8R            -0.9858315851       41.2979985804        8.9106667683  MEMB      131             0.0000000000
     14770       131  POPE      H8S            -2.6997453234       41.6497363847        8.6904979200  MEMB      131             0.0000000000
     14771       131  POPE      C29            -2.1061111149       39.7740203923        7.9073210912  MEMB      131             0.0000000000
     14772       131  POPE      H91            -3.0674416827       39.2504418497        8.0155292282  MEMB      131             0.0000000000
     14773       131  POPE      C210           -1.3160519865       39.4075416488        6.8644068624  MEMB      131             0.0000000000
     14774       131  POPE      H101           -1.5823710319       38.5341416873        6.2510165475  MEMB      131             0.0000000000
     14775       131  POPE      C211            0.0844124942       40.0098110471        6.4481874544  MEMB      131             0.0000000000
     14776       131  POPE      H11R            0.8859582875       39.2405699404        6.4375353775  MEMB      131             0.0000000000
     14777       131  POPE      H11S            0.3855850207       40.7993585052        7.1694582171  MEMB      131             0.0000000000
     14778       131  POPE      C212            0.2645041848       40.6992672884        5.0591089508  MEMB      131             0.0000000000
     14779       131  POPE      H12R            1.3041541293       41.0798997984        4.9665465923  MEMB      131             0.0000000000
     14780       131  POPE      H12S           -0.4603968125       41.5349884532        4.9570821560  MEMB      131             0.0000000000
     14781       131  POPE      C213            0.3230831578       39.7243083638        3.8192411475  MEMB      131             0.0000000000
     14782       131  POPE      H13R           -0.6684832969       39.2406239806        3.6882199317  MEMB      131             0.0000000000
     14783       131  POPE      H13S            1.0594921516       38.8939676697        3.8698096441  MEMB      131             0.0000000000
     14784       131  POPE      C214            0.5027758653       40.4657062578        2.4504335951  MEMB      131             0.0000000000
     14785       131  POPE      H14R            0.7082682904       39.6672193771        1.7057770450  MEMB      131             0.0000000000
     14786       131  POPE      H14S            1.3734254933       41.1511616441        2.3701796927  MEMB      131             0.0000000000
     14787       131  POPE      C215           -0.7425062133       41.1467288141        1.9259973435  MEMB      131             0.0000000000
     14788       131  POPE      H15R           -1.0265098189       42.0702760289        2.4743794855  MEMB      131             0.0000000000
     14789       131  POPE      H15S           -1.5398355907       40.3731524741        1.9389099125  MEMB      131             0.0000000000
     14790       131  POPE      C216           -0.4786069952       41.6395065500        0.4770750031  MEMB      131             0.0000000000
     14791       131  POPE      H16R            0.6282981713       41.6353544653        0.3818685699  MEMB      131             0.0000000000
     14792       131  POPE      H16S           -0.8284371781       42.6868189619        0.3542875390  MEMB      131             0.0000000000
     14793       131  POPE      C217           -1.0677741784       40.7396438224       -0.6134312230  MEMB      131             0.0000000000
     14794       131  POPE      H17R           -0.6538317929       41.0827567697       -1.5856692512  MEMB      131             0.0000000000
     14795       131  POPE      H17S           -2.1715558949       40.8624800228       -0.6433924361  MEMB      131             0.0000000000
     14796       131  POPE      C218           -0.7962815676       39.2164745936       -0.4724869298  MEMB      131             0.0000000000
     14797       131  POPE      H18R           -1.3886138744       38.9159018596        0.4180871243  MEMB      131             0.0000000000
     14798       131  POPE      H18S            0.2999332565       39.0461914168       -0.4121672187  MEMB      131             0.0000000000
     14799       131  POPE      H18T           -1.1521206456       38.6789865345       -1.3773655211  MEMB      131             0.0000000000
     14800       131  POPE      C33            -5.5013428201       41.5366064736       14.5136992195  MEMB      131             0.0000000000
     14801       131  POPE      H3X            -4.8459370738       40.6423182634       14.5845011038  MEMB      131             0.0000000000
     14802       131  POPE      H3Y            -5.0347884370       42.5298096343       14.3399307173  MEMB      131             0.0000000000
     14803       131  POPE      C34            -6.4623932088       41.3560400563       13.3193252016  MEMB      131             0.0000000000
     14804       131  POPE      H4X            -7.4537029048       41.8502609477       13.4051845760  MEMB      131             0.0000000000
     14805       131  POPE      H4Y            -6.7588446619       40.2873627476       13.3854026518  MEMB      131             0.0000000000
     14806       131  POPE      C35            -5.7490812863       41.5693386810       11.9141664730  MEMB      131             0.0000000000
     14807       131  POPE      H5X            -6.3321724716       41.1218114483       11.0810724450  MEMB      131             0.0000000000
     14808       131  POPE      H5Y            -4.7844893227       41.0245515429       11.8299609124  MEMB      131             0.0000000000
     14809       131  POPE      C36            -5.4931431913       43.0657392534       11.5730558641  MEMB      131             0.0000000000
     14810       131  POPE      H6X            -4.7294318743       43.4257800953       12.2951617473  MEMB      131             0.0000000000
     14811       131  POPE      H6Y            -6.4052378557       43.6763849755       11.7448587356  MEMB      131             0.0000000000
     14812       131  POPE      C37            -4.8834389099       43.1829629767       10.1301489275  MEMB      131             0.0000000000
     14813       131  POPE      H7X            -5.5511917889       42.7078787043        9.3800011172  MEMB      131             0.0000000000
     14814       131  POPE      H7Y            -3.9379762956       42.6000847166       10.1041791362  MEMB      131             0.0000000000
     14815       131  POPE      C38            -4.5938932104       44.6237413076        9.8114407435  MEMB      131             0.0000000000
     14816       131  POPE      H8X            -3.8366625757       44.9210861338       10.5680837211  MEMB      131             0.0000000000
     14817       131  POPE      H8Y            -5.5537231567       45.1550895316        9.9867018032  MEMB      131             0.0000000000
     14818       131  POPE      C39            -4.1545364281       44.9431568982        8.3795581351  MEMB      131             0.0000000000
     14819       131  POPE      H9X            -3.0457795192       44.9863905904        8.3237938832  MEMB      131             0.0000000000
     14820       131  POPE      H9Y            -4.5219261741       45.9853302765        8.2645773481  MEMB      131             0.0000000000
     14821       131  POPE      C310           -4.7270362779       44.1902334862        7.1992599807  MEMB      131             0.0000000000
     14822       131  POPE      H10X           -5.8042428851       43.9688949897        7.3572342932  MEMB      131             0.0000000000
     14823       131  POPE      H10Y           -4.2788577660       43.1753698511        7.2584969624  MEMB      131             0.0000000000
     14824       131  POPE      C311           -4.4859536351       44.8112868089        5.8080184202  MEMB      131             0.0000000000
     14825       131  POPE      H11X           -3.3764275418       44.8102417694        5.7508210116  MEMB      131             0.0000000000
     14826       131  POPE      H11Y           -4.9358445768       45.8141602771        5.9697721032  MEMB      131             0.0000000000
     14827       131  POPE      C312           -5.1420010879       44.0965139839        4.6647082706  MEMB      131             0.0000000000
     14828       131  POPE      H12X           -5.1264082248       44.5508741823        3.6509847007  MEMB      131             0.0000000000
     14829       131  POPE      H12Y           -6.1914424774       44.0054703653        5.0178432420  MEMB      131             0.0000000000
     14830       131  POPE      C313           -4.6561878782       42.6860375159        4.4476717847  MEMB      131             0.0000000000
     14831       131  POPE      H13X           -4.6544078358       42.1378182125        5.4139908914  MEMB      131             0.0000000000
     14832       131  POPE      H13Y           -3.5786343903       42.6177736427        4.1858719320  MEMB      131             0.0000000000
     14833       131  POPE      C314           -5.3149079072       41.7601501915        3.4063334037  MEMB      131             0.0000000000
     14834       131  POPE      H14X           -4.5742149927       40.9708018930        3.1560851390  MEMB      131             0.0000000000
     14835       131  POPE      H14Y           -5.4073564073       42.3152425363        2.4483945565  MEMB      131             0.0000000000
     14836       131  POPE      C315           -6.6748701557       41.1590483363        3.7287292482  MEMB      131             0.0000000000
     14837       131  POPE      H15X           -7.3633509362       41.9539382738        4.0871487808  MEMB      131             0.0000000000
     14838       131  POPE      H15Y           -6.4674705264       40.4395614679        4.5494885413  MEMB      131             0.0000000000
     14839       131  POPE      C316           -7.3955137915       40.4119426714        2.6326408749  MEMB      131             0.0000000000
     14840       131  POPE      H16X           -6.9132805596       39.4148122145        2.5460234680  MEMB      131             0.0000000000
     14841       131  POPE      H16Y           -7.3329445548       40.8674988198        1.6212680351  MEMB      131             0.0000000000
     14842       131  POPE      H16Z           -8.4760292811       40.2304964594        2.8167195927  MEMB      131             0.0000000000
     14843       132  POPC      N              47.7086051800        7.1027407812       20.3693702268  MEMB      132             0.0000000000
     14844       132  POPC      C12            47.1454600931        8.3781409198       19.7307393146  MEMB      132             0.0000000000
     14845       132  POPC      H12A           46.8427515639        8.9901047677       20.5675594389  MEMB      132             0.0000000000
     14846       132  POPC      H12B           46.2269679120        8.1874160572       19.1955793233  MEMB      132             0.0000000000
     14847       132  POPC      C13            48.8226872962        7.5680231419       21.4224244435  MEMB      132             0.0000000000
     14848       132  POPC      H13A           49.5391760836        8.2606457494       21.0061100558  MEMB      132             0.0000000000
     14849       132  POPC      H13B           48.2857359936        7.9435834018       22.2809336390  MEMB      132             0.0000000000
     14850       132  POPC      H13C           49.4129048665        6.7369314437       21.7792575218  MEMB      132             0.0000000000
     14851       132  POPC      C14            46.5891324152        6.5118160289       21.1950345023  MEMB      132             0.0000000000
     14852       132  POPC      H14A           45.8008072183        6.0876451723       20.5908635892  MEMB      132             0.0000000000
     14853       132  POPC      H14B           47.0571534697        5.7643226873       21.8184203692  MEMB      132             0.0000000000
     14854       132  POPC      H14C           46.1301678958        7.2971172388       21.7773175938  MEMB      132             0.0000000000
     14855       132  POPC      C15            48.2518609321        6.1651716252       19.3608217593  MEMB      132             0.0000000000
     14856       132  POPC      H15A           47.6538340411        6.0448883081       18.4695890606  MEMB      132             0.0000000000
     14857       132  POPC      H15B           48.4554912384        5.1959916976       19.7916637506  MEMB      132             0.0000000000
     14858       132  POPC      H15C           49.1892953471        6.5555011570       18.9930450932  MEMB      132             0.0000000000
     14859       132  POPC      C11            47.9587625156        9.1363435823       18.6249323867  MEMB      132             0.0000000000
     14860       132  POPC      H11A           47.4376757449       10.1093777366       18.4984655270  MEMB      132             0.0000000000
     14861       132  POPC      H11B           47.9099430789        8.4752679297       17.7333514503  MEMB      132             0.0000000000
     14862       132  POPC      P              50.2448145205        9.9703098911       17.6375106275  MEMB      132             0.0000000000
     14863       132  POPC      O13            50.3768185036        8.9651542668       16.5632179683  MEMB      132             0.0000000000
     14864       132  POPC      O14            51.5681931451       10.4751448033       18.1792494379  MEMB      132             0.0000000000
     14865       132  POPC      O12            49.3207837498        9.3860570419       18.8637172015  MEMB      132             0.0000000000
     14866       132  POPC      O11            49.4304491558       11.1312309032       17.0529821313  MEMB      132             0.0000000000
     14867       132  POPC      C1             49.3419811610       12.4259598321       17.6893356901  MEMB      132             0.0000000000
     14868       132  POPC      HA             50.3037755367       12.8690856320       18.0253595608  MEMB      132             0.0000000000
     14869       132  POPC      HB             48.5837881554       12.3675781666       18.4993085537  MEMB      132             0.0000000000
     14870       132  POPC      C2             48.8891440269       13.4550760557       16.6039135616  MEMB      132             0.0000000000
     14871       132  POPC      HS             48.3355466911       14.2608163736       17.1317715260  MEMB      132             0.0000000000
     14872       132  POPC      O21            48.0068643398       12.8432743077       15.6755006281  MEMB      132             0.0000000000
     14873       132  POPC      C21            46.7382440702       13.2751009240       15.5434704953  MEMB      132             0.0000000000
     14874       132  POPC      O22            46.2030757908       14.1330693845       16.1470591055  MEMB      132             0.0000000000
     14875       132  POPC      C22            46.0953252940       12.5052931832       14.3347723790  MEMB      132             0.0000000000
     14876       132  POPC      H2R            45.2988629542       13.2021716410       13.9966468255  MEMB      132             0.0000000000
     14877       132  POPC      H2S            45.6568497181       11.4963874863       14.4902380113  MEMB      132             0.0000000000
     14878       132  POPC      C3             49.9880419922       14.1975880096       15.7096630561  MEMB      132             0.0000000000
     14879       132  POPC      HX             50.6951840407       14.7972056144       16.3218149990  MEMB      132             0.0000000000
     14880       132  POPC      HY             49.6123644819       15.0478386876       15.1011722011  MEMB      132             0.0000000000
     14881       132  POPC      O31            50.7545213673       13.1920142977       15.0391042190  MEMB      132             0.0000000000
     14882       132  POPC      C31            50.9886899277       13.2203217385       13.7690483347  MEMB      132             0.0000000000
     14883       132  POPC      O32            50.5311308199       13.9942230162       12.9448040137  MEMB      132             0.0000000000
     14884       132  POPC      C32            52.0042613614       12.1173095501       13.4443572400  MEMB      132             0.0000000000
     14885       132  POPC      H2X            52.6637075113       12.0844382242       14.3378735810  MEMB      132             0.0000000000
     14886       132  POPC      H2Y            52.6701734644       12.3834715526       12.5958059383  MEMB      132             0.0000000000
     14887       132  POPC      C23            47.1237476384       12.3219587031       13.1861667094  MEMB      132             0.0000000000
     14888       132  POPC      H3R            47.9051595405       11.5426249951       13.3140548757  MEMB      132             0.0000000000
     14889       132  POPC      H3S            47.5646115431       13.3212195434       12.9826035900  MEMB      132             0.0000000000
     14890       132  POPC      C24            46.4917872799       12.0433144531       11.8697893130  MEMB      132             0.0000000000
     14891       132  POPC      H4R            47.2423978044       12.0972182237       11.0524773076  MEMB      132             0.0000000000
     14892       132  POPC      H4S            45.7344259468       12.7647039827       11.4951939603  MEMB      132             0.0000000000
     14893       132  POPC      C25            45.8799793999       10.6148723517       11.7237384051  MEMB      132             0.0000000000
     14894       132  POPC      H5R            44.8395509232       10.3739982181       12.0300207519  MEMB      132             0.0000000000
     14895       132  POPC      H5S            46.5315246921        9.9281478461       12.3053041283  MEMB      132             0.0000000000
     14896       132  POPC      C26            46.0344879063       10.0598669431       10.2995711136  MEMB      132             0.0000000000
     14897       132  POPC      H6R            46.0234478048        8.9491157401       10.2788168915  MEMB      132             0.0000000000
     14898       132  POPC      H6S            46.9998599641       10.1937142480        9.7662200855  MEMB      132             0.0000000000
     14899       132  POPC      C27            44.8519386761       10.5895416938        9.4771600223  MEMB      132             0.0000000000
     14900       132  POPC      H7R            44.4079680144       11.5083275703        9.9165272128  MEMB      132             0.0000000000
     14901       132  POPC      H7S            44.0421328276        9.8445025271        9.3240193668  MEMB      132             0.0000000000
     14902       132  POPC      C28            45.3977089747       11.0722162067        8.0581634611  MEMB      132             0.0000000000
     14903       132  POPC      H8R            45.8915292876       10.1473821340        7.6905438015  MEMB      132             0.0000000000
     14904       132  POPC      H8S            46.1953529588       11.8443231872        8.1021589838  MEMB      132             0.0000000000
     14905       132  POPC      C29            44.3454185668       11.6354962570        7.1668971037  MEMB      132             0.0000000000
     14906       132  POPC      H91            43.8657791239       12.5271601227        7.5968761494  MEMB      132             0.0000000000
     14907       132  POPC      C210           44.2451226661       11.5118022260        5.8415665680  MEMB      132             0.0000000000
     14908       132  POPC      H101           43.3296651994       11.8689604278        5.3472228773  MEMB      132             0.0000000000
     14909       132  POPC      C211           45.1750482485       10.7602373761        4.9481677536  MEMB      132             0.0000000000
     14910       132  POPC      H11R           44.6454944744        9.8325841885        4.6426301423  MEMB      132             0.0000000000
     14911       132  POPC      H11S           46.1652739357       10.4716264179        5.3610581922  MEMB      132             0.0000000000
     14912       132  POPC      C212           45.4376566191       11.4394437972        3.5857962159  MEMB      132             0.0000000000
     14913       132  POPC      H12R           44.4578379764       11.5346699518        3.0708126332  MEMB      132             0.0000000000
     14914       132  POPC      H12S           46.0056568101       10.7642806685        2.9106284126  MEMB      132             0.0000000000
     14915       132  POPC      C213           46.1226513251       12.7932357059        3.7861201353  MEMB      132             0.0000000000
     14916       132  POPC      H13R           46.8360382456       12.6635893273        4.6278999354  MEMB      132             0.0000000000
     14917       132  POPC      H13S           45.2724583210       13.4504592018        4.0681668359  MEMB      132             0.0000000000
     14918       132  POPC      C214           46.7734576632       13.3670105379        2.5218204637  MEMB      132             0.0000000000
     14919       132  POPC      H14R           47.4753382133       12.5890627548        2.1523849521  MEMB      132             0.0000000000
     14920       132  POPC      H14S           47.3266365446       14.3046838079        2.7433666747  MEMB      132             0.0000000000
     14921       132  POPC      C215           45.7534765108       13.6600637337        1.4131880978  MEMB      132             0.0000000000
     14922       132  POPC      H15R           45.2966488897       14.6548267160        1.6031244474  MEMB      132             0.0000000000
     14923       132  POPC      H15S           44.9753289343       12.8671667955        1.4021517469  MEMB      132             0.0000000000
     14924       132  POPC      C216           46.4627309197       13.6966344283        0.0519888375  MEMB      132             0.0000000000
     14925       132  POPC      H16R           45.6104625615       13.8991050187       -0.6313600058  MEMB      132             0.0000000000
     14926       132  POPC      H16S           46.7700880080       12.6300464202        0.0993494036  MEMB      132             0.0000000000
     14927       132  POPC      C217           47.6478103237       14.6513248018       -0.0014751233  MEMB      132             0.0000000000
     14928       132  POPC      H17R           48.1526342148       14.4745686781       -0.9752457063  MEMB      132             0.0000000000
     14929       132  POPC      H17S           48.4608490092       14.4428275955        0.7264107828  MEMB      132             0.0000000000
     14930       132  POPC      C218           47.2622756125       16.1062175035        0.0410061229  MEMB      132             0.0000000000
     14931       132  POPC      H18R           46.9016980169       16.4027334935        1.0491648411  MEMB      132             0.0000000000
     14932       132  POPC      H18S           46.5076794270       16.4121844196       -0.7148312884  MEMB      132             0.0000000000
     14933       132  POPC      H18T           48.1442128988       16.7613842495       -0.1241130559  MEMB      132             0.0000000000
     14934       132  POPC      C33            51.3351862052       10.7592477885       13.1830734124  MEMB      132             0.0000000000
     14935       132  POPC      H3X            50.5523948848       10.8106722568       12.3963621683  MEMB      132             0.0000000000
     14936       132  POPC      H3Y            50.9312784662       10.3659400859       14.1404072415  MEMB      132             0.0000000000
     14937       132  POPC      C34            52.5085036441        9.8824377551       12.6560999122  MEMB      132             0.0000000000
     14938       132  POPC      H4X            53.2682511135        9.9894515293       13.4596253455  MEMB      132             0.0000000000
     14939       132  POPC      H4Y            52.8708377020       10.2962376089       11.6907995272  MEMB      132             0.0000000000
     14940       132  POPC      C35            52.1002778958        8.3423162476       12.4173372808  MEMB      132             0.0000000000
     14941       132  POPC      H5X            51.7350887131        7.9899632345       13.4056718481  MEMB      132             0.0000000000
     14942       132  POPC      H5Y            52.9988061055        7.7428175204       12.1573960994  MEMB      132             0.0000000000
     14943       132  POPC      C36            51.1143173110        8.0823192589       11.2679353120  MEMB      132             0.0000000000
     14944       132  POPC      H6X            50.2127700423        8.6522330232       11.5789529027  MEMB      132             0.0000000000
     14945       132  POPC      H6Y            50.7320148788        7.0394313132       11.2914058150  MEMB      132             0.0000000000
     14946       132  POPC      C37            51.6303710908        8.3801623125        9.8365395185  MEMB      132             0.0000000000
     14947       132  POPC      H7X            52.4947011624        7.7529248881        9.5302265209  MEMB      132             0.0000000000
     14948       132  POPC      H7Y            51.9037077546        9.4500472473        9.7142510673  MEMB      132             0.0000000000
     14949       132  POPC      C38            50.4974806534        8.2329397055        8.8171507246  MEMB      132             0.0000000000
     14950       132  POPC      H8X            49.6758282132        8.9011980475        9.1527676268  MEMB      132             0.0000000000
     14951       132  POPC      H8Y            50.1880260753        7.1663797724        8.8489071544  MEMB      132             0.0000000000
     14952       132  POPC      C39            50.8874437370        8.4608611576        7.3300713564  MEMB      132             0.0000000000
     14953       132  POPC      H9X            50.0871512161        8.0699738399        6.6659480247  MEMB      132             0.0000000000
     14954       132  POPC      H9Y            51.8178082874        7.8690035642        7.1942489059  MEMB      132             0.0000000000
     14955       132  POPC      C310           51.1746277789        9.8828041810        6.9874420147  MEMB      132             0.0000000000
     14956       132  POPC      H10X           52.1339221109       10.2311503345        7.4264525647  MEMB      132             0.0000000000
     14957       132  POPC      H10Y           50.4301559331       10.4877998183        7.5478546070  MEMB      132             0.0000000000
     14958       132  POPC      C311           51.1587669014       10.2139530802        5.5344884044  MEMB      132             0.0000000000
     14959       132  POPC      H11X           51.6665308132        9.4047705702        4.9672843080  MEMB      132             0.0000000000
     14960       132  POPC      H11Y           51.7248097329       11.1557935224        5.3706189397  MEMB      132             0.0000000000
     14961       132  POPC      C312           49.7693869396       10.2935091430        4.8983048769  MEMB      132             0.0000000000
     14962       132  POPC      H12X           49.2110825096       11.0935215899        5.4299035692  MEMB      132             0.0000000000
     14963       132  POPC      H12Y           49.2805845169        9.3117829959        5.0760879973  MEMB      132             0.0000000000
     14964       132  POPC      C313           49.7517617567       10.4644850676        3.3411392735  MEMB      132             0.0000000000
     14965       132  POPC      H13X           50.3485506759       11.3622260785        3.0723920929  MEMB      132             0.0000000000
     14966       132  POPC      H13Y           48.7600143982       10.5460690987        2.8470723000  MEMB      132             0.0000000000
     14967       132  POPC      C314           50.4969559250        9.2969511173        2.6460443159  MEMB      132             0.0000000000
     14968       132  POPC      H14X           50.6052439283        8.4778532836        3.3887917889  MEMB      132             0.0000000000
     14969       132  POPC      H14Y           51.5057745945        9.5786697499        2.2755843872  MEMB      132             0.0000000000
     14970       132  POPC      C315           49.5897800951        8.7363323429        1.5601166883  MEMB      132             0.0000000000
     14971       132  POPC      H15X           48.5887045141        8.5648560107        2.0104106937  MEMB      132             0.0000000000
     14972       132  POPC      H15Y           49.9412034357        7.7065571012        1.3356493350  MEMB      132             0.0000000000
     14973       132  POPC      C316           49.5705521172        9.5422987338        0.3099538810  MEMB      132             0.0000000000
     14974       132  POPC      H16X           49.1621055408       10.5138892748        0.6613856855  MEMB      132             0.0000000000
     14975       132  POPC      H16Y           48.9961446521        8.9867038569       -0.4618566104  MEMB      132             0.0000000000
     14976       132  POPC      H16Z           50.6052752764        9.6734849654       -0.0727452895  MEMB      132             0.0000000000
     14977       133  POPC      N              48.4017024975       14.9023246735       18.5747226644  MEMB      133             0.0000000000
     14978       133  POPC      C12            48.2730062311       16.1066374221       19.5397305237  MEMB      133             0.0000000000
     14979       133  POPC      H12A           47.5348600045       15.8979269136       20.2999804750  MEMB      133             0.0000000000
     14980       133  POPC      H12B           47.9006582341       16.9351079128       18.9554415144  MEMB      133             0.0000000000
     14981       133  POPC      C13            47.0279445972       14.6602748258       18.0042273099  MEMB      133             0.0000000000
     14982       133  POPC      H13A           46.7626923852       15.4181827164       17.2819966386  MEMB      133             0.0000000000
     14983       133  POPC      H13B           46.9760437522       13.7040291873       17.5049273982  MEMB      133             0.0000000000
     14984       133  POPC      H13C           46.2016360035       14.6709790855       18.6995686284  MEMB      133             0.0000000000
     14985       133  POPC      C14            49.4190444695       15.2768720210       17.4537752870  MEMB      133             0.0000000000
     14986       133  POPC      H14A           50.2334724667       15.7710456237       17.9625969760  MEMB      133             0.0000000000
     14987       133  POPC      H14B           49.5616425506       14.4890763485       16.7289004831  MEMB      133             0.0000000000
     14988       133  POPC      H14C           48.8841948502       16.0071175748       16.8646426127  MEMB      133             0.0000000000
     14989       133  POPC      C15            49.0067812065       13.9106228841       19.4518157758  MEMB      133             0.0000000000
     14990       133  POPC      H15A           48.2914486764       13.6034244082       20.2003668685  MEMB      133             0.0000000000
     14991       133  POPC      H15B           49.9113954113       14.3678011558       19.8247246826  MEMB      133             0.0000000000
     14992       133  POPC      H15C           49.4634447766       13.0781603484       18.9371658903  MEMB      133             0.0000000000
     14993       133  POPC      C11            49.5077415362       16.5550448798       20.3002427585  MEMB      133             0.0000000000
     14994       133  POPC      H11A           49.8782839859       15.7684689824       20.9918478449  MEMB      133             0.0000000000
     14995       133  POPC      H11B           49.1285815541       17.4148499078       20.8929433100  MEMB      133             0.0000000000
     14996       133  POPC      P              50.7297826931       18.5059548781       19.1556307914  MEMB      133             0.0000000000
     14997       133  POPC      O13            51.5355667667       18.6998532632       17.9108335008  MEMB      133             0.0000000000
     14998       133  POPC      O14            51.2465716225       19.1289855807       20.3640881862  MEMB      133             0.0000000000
     14999       133  POPC      O12            50.4843745127       16.9584390100       19.3988393438  MEMB      133             0.0000000000
     15000       133  POPC      O11            49.2929212937       19.1272472174       18.8460938163  MEMB      133             0.0000000000
     15001       133  POPC      C1             49.1395857281       20.5297732225       18.7762934977  MEMB      133             0.0000000000
     15002       133  POPC      HA             50.1129872060       21.0598405867       18.6998796318  MEMB      133             0.0000000000
     15003       133  POPC      HB             48.7323064880       20.8577660329       19.7565309045  MEMB      133             0.0000000000
     15004       133  POPC      C2             48.0785329200       20.9242972696       17.7182620815  MEMB      133             0.0000000000
     15005       133  POPC      HS             47.9190614216       22.0172830964       17.8377279012  MEMB      133             0.0000000000
     15006       133  POPC      O21            46.8166976758       20.2797873516       17.9960918820  MEMB      133             0.0000000000
     15007       133  POPC      C21            45.7587258198       20.3841771126       17.3516175156  MEMB      133             0.0000000000
     15008       133  POPC      O22            45.4345842247       21.3526917725       16.6613921752  MEMB      133             0.0000000000
     15009       133  POPC      C22            44.8383246914       19.1774572410       17.4658215286  MEMB      133             0.0000000000
     15010       133  POPC      H2R            43.8006377665       19.5165132417       17.6721411801  MEMB      133             0.0000000000
     15011       133  POPC      H2S            45.2309051004       18.4969594285       18.2513939846  MEMB      133             0.0000000000
     15012       133  POPC      C3             48.6226880030       20.5804943881       16.2137802577  MEMB      133             0.0000000000
     15013       133  POPC      HX             49.5180731418       21.2351783660       16.1505741994  MEMB      133             0.0000000000
     15014       133  POPC      HY             47.7962903228       20.8925508463       15.5399786501  MEMB      133             0.0000000000
     15015       133  POPC      O31            48.8453572952       19.1995458116       16.0478486414  MEMB      133             0.0000000000
     15016       133  POPC      C31            49.5822815577       18.8696775790       14.9542559472  MEMB      133             0.0000000000
     15017       133  POPC      O32            50.2410482117       19.6794464196       14.2798481997  MEMB      133             0.0000000000
     15018       133  POPC      C32            49.6228309788       17.3358872375       14.8624649267  MEMB      133             0.0000000000
     15019       133  POPC      H2X            48.6428486906       16.9634973776       15.2302714385  MEMB      133             0.0000000000
     15020       133  POPC      H2Y            50.3372741516       16.9102402980       15.5991581084  MEMB      133             0.0000000000
     15021       133  POPC      C23            44.9987581986       18.2667057257       16.1928318455  MEMB      133             0.0000000000
     15022       133  POPC      H3R            46.0808270426       18.0205828836       16.1392425948  MEMB      133             0.0000000000
     15023       133  POPC      H3S            44.7633553453       18.8943708769       15.3068618120  MEMB      133             0.0000000000
     15024       133  POPC      C24            44.0539900856       17.0953541256       16.1734349901  MEMB      133             0.0000000000
     15025       133  POPC      H4R            42.9814267681       17.3825309510       16.2116151842  MEMB      133             0.0000000000
     15026       133  POPC      H4S            44.3050419096       16.5106111559       17.0841323697  MEMB      133             0.0000000000
     15027       133  POPC      C25            44.3072216252       16.1484948742       15.0396067923  MEMB      133             0.0000000000
     15028       133  POPC      H5R            43.6281585852       15.2847025695       15.2040968039  MEMB      133             0.0000000000
     15029       133  POPC      H5S            45.3737777245       15.8518423873       15.1332902920  MEMB      133             0.0000000000
     15030       133  POPC      C26            44.1429549154       16.7125324825       13.6279897592  MEMB      133             0.0000000000
     15031       133  POPC      H6R            45.0011778093       17.4046672448       13.4911540987  MEMB      133             0.0000000000
     15032       133  POPC      H6S            43.2540297546       17.3548875128       13.4504703800  MEMB      133             0.0000000000
     15033       133  POPC      C27            44.3631153070       15.6322625082       12.5892779407  MEMB      133             0.0000000000
     15034       133  POPC      H7R            43.6916295710       14.7714616820       12.7953123452  MEMB      133             0.0000000000
     15035       133  POPC      H7S            45.3492999099       15.1871773876       12.8415870703  MEMB      133             0.0000000000
     15036       133  POPC      C28            44.1356326503       15.9843418635       11.1024363688  MEMB      133             0.0000000000
     15037       133  POPC      H8R            43.2381501443       16.6379865757       11.0625035979  MEMB      133             0.0000000000
     15038       133  POPC      H8S            43.8744632406       15.0600040384       10.5441250511  MEMB      133             0.0000000000
     15039       133  POPC      C29            45.3794299919       16.6808951023       10.4965599439  MEMB      133             0.0000000000
     15040       133  POPC      H91            45.6637686833       17.5841039390       11.0563500280  MEMB      133             0.0000000000
     15041       133  POPC      C210           46.1181391077       16.3342231475        9.3783739815  MEMB      133             0.0000000000
     15042       133  POPC      H101           47.0261068365       16.8888323942        9.0990829375  MEMB      133             0.0000000000
     15043       133  POPC      C211           45.9551578389       15.2180916929        8.4416566101  MEMB      133             0.0000000000
     15044       133  POPC      H11R           44.9347482908       15.3095901525        8.0118741698  MEMB      133             0.0000000000
     15045       133  POPC      H11S           45.9632566837       14.2666351630        9.0152293971  MEMB      133             0.0000000000
     15046       133  POPC      C212           47.1849909648       15.2159194853        7.5217970189  MEMB      133             0.0000000000
     15047       133  POPC      H12R           48.1739701272       15.0412377429        7.9969044761  MEMB      133             0.0000000000
     15048       133  POPC      H12S           47.2770102935       16.2255355225        7.0673413379  MEMB      133             0.0000000000
     15049       133  POPC      C213           46.9370247120       14.2195916126        6.4083074073  MEMB      133             0.0000000000
     15050       133  POPC      H13R           45.8507315650       14.2571335764        6.1783535436  MEMB      133             0.0000000000
     15051       133  POPC      H13S           47.2023213319       13.2430375181        6.8668701620  MEMB      133             0.0000000000
     15052       133  POPC      C214           47.9084476710       14.4077014934        5.2293980991  MEMB      133             0.0000000000
     15053       133  POPC      H14R           48.0733294856       13.4236981903        4.7406518415  MEMB      133             0.0000000000
     15054       133  POPC      H14S           48.8446140331       14.8788886095        5.5980395184  MEMB      133             0.0000000000
     15055       133  POPC      C215           47.2976118454       15.3401351572        4.2313853463  MEMB      133             0.0000000000
     15056       133  POPC      H15R           46.6266116046       16.1049913029        4.6775625994  MEMB      133             0.0000000000
     15057       133  POPC      H15S           46.4940640229       14.7444095201        3.7479153443  MEMB      133             0.0000000000
     15058       133  POPC      C216           48.1406776840       15.8644305787        3.0605165872  MEMB      133             0.0000000000
     15059       133  POPC      H16R           48.8802419675       16.4360765908        3.6610060099  MEMB      133             0.0000000000
     15060       133  POPC      H16S           47.5459327270       16.6173533849        2.5004208452  MEMB      133             0.0000000000
     15061       133  POPC      C217           48.6388465636       14.8178170285        2.1294880576  MEMB      133             0.0000000000
     15062       133  POPC      H17R           47.7967002586       14.2753731622        1.6490029684  MEMB      133             0.0000000000
     15063       133  POPC      H17S           49.2508074999       14.0624977532        2.6673696379  MEMB      133             0.0000000000
     15064       133  POPC      C218           49.5524847134       15.4922695813        1.0805091707  MEMB      133             0.0000000000
     15065       133  POPC      H18R           50.0089882432       14.7743445100        0.3660103260  MEMB      133             0.0000000000
     15066       133  POPC      H18S           50.2954852524       16.1124833377        1.6260415360  MEMB      133             0.0000000000
     15067       133  POPC      H18T           48.9189383776       16.2018637998        0.5065619822  MEMB      133             0.0000000000
     15068       133  POPC      C33            50.1496570328       16.9394660780       13.5036234715  MEMB      133             0.0000000000
     15069       133  POPC      H3X            50.3066565673       15.8502598181       13.6562727992  MEMB      133             0.0000000000
     15070       133  POPC      H3Y            51.1045705392       17.4911865000       13.3692141223  MEMB      133             0.0000000000
     15071       133  POPC      C34            49.2006085756       17.2129406684       12.2926457779  MEMB      133             0.0000000000
     15072       133  POPC      H4X            49.0892209859       18.3046139111       12.1189696576  MEMB      133             0.0000000000
     15073       133  POPC      H4Y            48.2353039632       16.7533705670       12.5948098676  MEMB      133             0.0000000000
     15074       133  POPC      C35            49.6440762231       16.4977013189       10.9367757449  MEMB      133             0.0000000000
     15075       133  POPC      H5X            48.8210793125       16.1137384656       10.2968001359  MEMB      133             0.0000000000
     15076       133  POPC      H5Y            50.2042533632       15.5953809055       11.2628746462  MEMB      133             0.0000000000
     15077       133  POPC      C36            50.6299976549       17.3048293891       10.1834929520  MEMB      133             0.0000000000
     15078       133  POPC      H6X            51.5112308484       17.3637077296       10.8574969547  MEMB      133             0.0000000000
     15079       133  POPC      H6Y            50.2848408456       18.3478626114       10.0183574274  MEMB      133             0.0000000000
     15080       133  POPC      C37            50.9927664107       16.6978649896        8.7961278490  MEMB      133             0.0000000000
     15081       133  POPC      H7X            50.0805185586       16.7844768479        8.1679375050  MEMB      133             0.0000000000
     15082       133  POPC      H7Y            51.1950961829       15.6056291554        8.7760128505  MEMB      133             0.0000000000
     15083       133  POPC      C38            52.1422551720       17.4278585705        8.1429867871  MEMB      133             0.0000000000
     15084       133  POPC      H8X            52.6011340096       16.8692362643        7.2993673771  MEMB      133             0.0000000000
     15085       133  POPC      H8Y            52.8235004361       17.7292512495        8.9672367588  MEMB      133             0.0000000000
     15086       133  POPC      C39            51.7135351989       18.9115643278        7.4571873552  MEMB      133             0.0000000000
     15087       133  POPC      H9X            52.5888968393       19.5179194474        7.1403326639  MEMB      133             0.0000000000
     15088       133  POPC      H9Y            51.0782950067       19.5129539689        8.1421111125  MEMB      133             0.0000000000
     15089       133  POPC      C310           50.7939562555       18.6876366450        6.2768475094  MEMB      133             0.0000000000
     15090       133  POPC      H10X           50.7983894557       17.5905674834        6.1015171989  MEMB      133             0.0000000000
     15091       133  POPC      H10Y           51.2140064833       19.2496103869        5.4154157453  MEMB      133             0.0000000000
     15092       133  POPC      C311           49.4605760866       19.4000531445        6.5626022251  MEMB      133             0.0000000000
     15093       133  POPC      H11X           49.7382320347       20.4706686051        6.6675346855  MEMB      133             0.0000000000
     15094       133  POPC      H11Y           49.0230806372       19.0302967848        7.5145472311  MEMB      133             0.0000000000
     15095       133  POPC      C312           48.5250974265       19.2008923356        5.4823311336  MEMB      133             0.0000000000
     15096       133  POPC      H12X           47.6120582479       19.7856501902        5.7246918909  MEMB      133             0.0000000000
     15097       133  POPC      H12Y           48.3082070526       18.1197611167        5.3465560709  MEMB      133             0.0000000000
     15098       133  POPC      C313           49.0954749384       19.6368670221        4.1273789289  MEMB      133             0.0000000000
     15099       133  POPC      H13X           49.8657628883       18.9614731835        3.6974714840  MEMB      133             0.0000000000
     15100       133  POPC      H13Y           49.5294916361       20.6578269966        4.0674521796  MEMB      133             0.0000000000
     15101       133  POPC      C314           47.9620554351       19.6074925894        3.1010401224  MEMB      133             0.0000000000
     15102       133  POPC      H14X           47.1277350702       20.2227884871        3.5005914292  MEMB      133             0.0000000000
     15103       133  POPC      H14Y           47.5991148881       18.5605212748        3.0207526999  MEMB      133             0.0000000000
     15104       133  POPC      C315           48.5202448528       20.0723867115        1.7676412353  MEMB      133             0.0000000000
     15105       133  POPC      H15X           49.3858392596       19.4055791615        1.5665566098  MEMB      133             0.0000000000
     15106       133  POPC      H15Y           48.7888418191       21.1406349524        1.9126321785  MEMB      133             0.0000000000
     15107       133  POPC      C316           47.5063263607       19.9749893805        0.6369876834  MEMB      133             0.0000000000
     15108       133  POPC      H16X           47.0894968891       18.9466463072        0.5814473477  MEMB      133             0.0000000000
     15109       133  POPC      H16Y           47.9301122232       20.2524659203       -0.3518160134  MEMB      133             0.0000000000
     15110       133  POPC      H16Z           46.6454131744       20.5949473040        0.9668385833  MEMB      133             0.0000000000
     15111       134  POPE      N             -11.5442715960      -48.9622378030       21.0951293568  MEMB      134             0.0000000000
     15112       134  POPE      HN1           -10.7502587710      -48.2952244719       21.1741013528  MEMB      134             0.0000000000
     15113       134  POPE      HN2           -12.2835478712      -48.5940576939       21.7272007647  MEMB      134             0.0000000000
     15114       134  POPE      HN3           -11.3817436690      -49.9364254850       21.4209255147  MEMB      134             0.0000000000
     15115       134  POPE      C12           -11.8370316899      -48.8686024239       19.5959357538  MEMB      134             0.0000000000
     15116       134  POPE      H12A          -12.2546794182      -47.8554092321       19.4133683818  MEMB      134             0.0000000000
     15117       134  POPE      H12B          -12.6389503619      -49.5639735590       19.2677486560  MEMB      134             0.0000000000
     15118       134  POPE      C11           -10.5668974681      -49.0025459681       18.6731882182  MEMB      134             0.0000000000
     15119       134  POPE      H11A          -10.7871079925      -48.5350671781       17.6896782209  MEMB      134             0.0000000000
     15120       134  POPE      H11B          -10.2246714135      -50.0430929885       18.4875426937  MEMB      134             0.0000000000
     15121       134  POPE      P              -8.0978448945      -48.3683557385       18.5609596333  MEMB      134             0.0000000000
     15122       134  POPE      O13            -7.7250462111      -49.7101714824       18.0649774055  MEMB      134             0.0000000000
     15123       134  POPE      O14            -7.1272318121      -47.7038925369       19.4666925547  MEMB      134             0.0000000000
     15124       134  POPE      O11            -8.3875434714      -47.5107426196       17.3018600419  MEMB      134             0.0000000000
     15125       134  POPE      O12            -9.5001473851      -48.3222818222       19.2412570282  MEMB      134             0.0000000000
     15126       134  POPE      C1             -7.2947069424      -47.1678508223       16.4327000779  MEMB      134             0.0000000000
     15127       134  POPE      HA             -6.4596486571      -47.8972696183       16.5030338242  MEMB      134             0.0000000000
     15128       134  POPE      HB             -6.9340824105      -46.1499329687       16.6936867206  MEMB      134             0.0000000000
     15129       134  POPE      C2             -7.6844585024      -47.2206385338       14.9023625220  MEMB      134             0.0000000000
     15130       134  POPE      HS             -6.7886080567      -46.7546711531       14.4390623567  MEMB      134             0.0000000000
     15131       134  POPE      O21            -8.8452768443      -46.3783903512       14.7951551678  MEMB      134             0.0000000000
     15132       134  POPE      C21            -9.0464908425      -46.0102597698       13.5397869184  MEMB      134             0.0000000000
     15133       134  POPE      O22            -8.2448148088      -46.1958872815       12.6577219810  MEMB      134             0.0000000000
     15134       134  POPE      C22           -10.2009451730      -45.0516694267       13.4550429791  MEMB      134             0.0000000000
     15135       134  POPE      H2R            -9.8757325752      -44.0015730537       13.2942456385  MEMB      134             0.0000000000
     15136       134  POPE      H2S           -10.8217281957      -45.1453104204       14.3716568527  MEMB      134             0.0000000000
     15137       134  POPE      C3             -8.0066134557      -48.6437828014       14.3605094745  MEMB      134             0.0000000000
     15138       134  POPE      HX             -7.1496680749      -49.2735317146       14.6820398897  MEMB      134             0.0000000000
     15139       134  POPE      HY             -7.9707168881      -48.5415314831       13.2548074189  MEMB      134             0.0000000000
     15140       134  POPE      O31            -9.3250047995      -49.0601398553       14.7912987748  MEMB      134             0.0000000000
     15141       134  POPE      C31            -9.7024031715      -50.2567216934       14.3838843919  MEMB      134             0.0000000000
     15142       134  POPE      O32            -9.0149646982      -51.1531381386       13.9174968854  MEMB      134             0.0000000000
     15143       134  POPE      C32           -11.2074595729      -50.5295114889       14.6779947316  MEMB      134             0.0000000000
     15144       134  POPE      H2X           -11.7305812011      -49.5717961239       14.4695578408  MEMB      134             0.0000000000
     15145       134  POPE      H2Y           -11.3887772352      -50.7365771005       15.7543632381  MEMB      134             0.0000000000
     15146       134  POPE      C23           -11.0334497186      -45.4367646223       12.2436529127  MEMB      134             0.0000000000
     15147       134  POPE      H3R           -10.5725875307      -45.5888801182       11.2442590827  MEMB      134             0.0000000000
     15148       134  POPE      H3S           -11.7758481274      -44.6272116878       12.0769509682  MEMB      134             0.0000000000
     15149       134  POPE      C24           -11.9423457792      -46.6878039537       12.5165106058  MEMB      134             0.0000000000
     15150       134  POPE      H4R           -12.4239572514      -46.5455718749       13.5075413127  MEMB      134             0.0000000000
     15151       134  POPE      H4S           -11.3188924929      -47.5871435889       12.7083836053  MEMB      134             0.0000000000
     15152       134  POPE      C25           -13.0683083097      -46.9809224508       11.5778394912  MEMB      134             0.0000000000
     15153       134  POPE      H5R           -13.7003405308      -46.0723454669       11.4811760261  MEMB      134             0.0000000000
     15154       134  POPE      H5S           -13.7585586145      -47.6925995504       12.0792288261  MEMB      134             0.0000000000
     15155       134  POPE      C26           -12.6922197690      -47.4450481384       10.1282208543  MEMB      134             0.0000000000
     15156       134  POPE      H6R           -12.2138313148      -48.4476293275       10.1110051489  MEMB      134             0.0000000000
     15157       134  POPE      H6S           -11.8693885616      -46.8049817803        9.7440530989  MEMB      134             0.0000000000
     15158       134  POPE      C27           -13.8018103955      -47.1911531105        9.0800314834  MEMB      134             0.0000000000
     15159       134  POPE      H7R           -14.2929967449      -46.2001939019        9.1851841464  MEMB      134             0.0000000000
     15160       134  POPE      H7S           -14.5572346089      -47.9699917944        9.3189155169  MEMB      134             0.0000000000
     15161       134  POPE      C28           -13.4437873717      -47.3503348673        7.5482600255  MEMB      134             0.0000000000
     15162       134  POPE      H8R           -12.9286428267      -48.3344329531        7.5705794713  MEMB      134             0.0000000000
     15163       134  POPE      H8S           -12.6788359850      -46.5807554780        7.3096853567  MEMB      134             0.0000000000
     15164       134  POPE      C29           -14.5482287357      -47.2611565008        6.5662877675  MEMB      134             0.0000000000
     15165       134  POPE      H91           -14.9695906338      -46.2480686126        6.6444364431  MEMB      134             0.0000000000
     15166       134  POPE      C210          -14.8281255364      -48.1221512518        5.6017978082  MEMB      134             0.0000000000
     15167       134  POPE      H101          -15.4301739245      -47.8151607585        4.7338729446  MEMB      134             0.0000000000
     15168       134  POPE      C211          -14.0539715868      -49.3820020105        5.2500022892  MEMB      134             0.0000000000
     15169       134  POPE      H11R          -14.7947103220      -50.1176774567        4.8699909096  MEMB      134             0.0000000000
     15170       134  POPE      H11S          -13.5992690510      -49.8756513605        6.1353699401  MEMB      134             0.0000000000
     15171       134  POPE      C212          -12.9682253894      -49.1874517907        4.1607817243  MEMB      134             0.0000000000
     15172       134  POPE      H12R          -12.4363874047      -50.1119109048        3.8495834146  MEMB      134             0.0000000000
     15173       134  POPE      H12S          -12.2257978190      -48.4431033288        4.5200420701  MEMB      134             0.0000000000
     15174       134  POPE      C213          -13.5938945877      -48.6811515277        2.7852558225  MEMB      134             0.0000000000
     15175       134  POPE      H13R          -14.0806490924      -47.6924539971        2.9262091333  MEMB      134             0.0000000000
     15176       134  POPE      H13S          -14.5361665938      -49.2270150773        2.5650786171  MEMB      134             0.0000000000
     15177       134  POPE      C214          -12.8079843204      -48.7375932857        1.4646022731  MEMB      134             0.0000000000
     15178       134  POPE      H14R          -12.6118103838      -49.8115269349        1.2584397383  MEMB      134             0.0000000000
     15179       134  POPE      H14S          -11.8633676197      -48.1652340947        1.5847074567  MEMB      134             0.0000000000
     15180       134  POPE      C215          -13.6692700884      -48.3223793552        0.3197318907  MEMB      134             0.0000000000
     15181       134  POPE      H15R          -13.8865498800      -47.2336482039        0.3618596488  MEMB      134             0.0000000000
     15182       134  POPE      H15S          -14.6216471596      -48.8885400803        0.2375082190  MEMB      134             0.0000000000
     15183       134  POPE      C216          -12.9067708326      -48.3933093993       -1.0068046979  MEMB      134             0.0000000000
     15184       134  POPE      H16R          -13.7090227668      -48.1646391557       -1.7405786794  MEMB      134             0.0000000000
     15185       134  POPE      H16S          -12.6346703487      -49.4431338055       -1.2479500939  MEMB      134             0.0000000000
     15186       134  POPE      C217          -11.7575734501      -47.4558754541       -1.0721404121  MEMB      134             0.0000000000
     15187       134  POPE      H17R          -10.9112249024      -47.9479759242       -0.5469240159  MEMB      134             0.0000000000
     15188       134  POPE      H17S          -11.7857536360      -46.4723800042       -0.5561335269  MEMB      134             0.0000000000
     15189       134  POPE      C218          -11.1709203852      -47.3715662041       -2.5363397842  MEMB      134             0.0000000000
     15190       134  POPE      H18R          -10.3708338256      -46.6007555725       -2.5305606701  MEMB      134             0.0000000000
     15191       134  POPE      H18S          -11.9936154408      -47.0740072172       -3.2211409840  MEMB      134             0.0000000000
     15192       134  POPE      H18T          -10.8489720211      -48.3712222139       -2.8987723115  MEMB      134             0.0000000000
     15193       134  POPE      C33           -11.7467817666      -51.7398822456       13.9817211220  MEMB      134             0.0000000000
     15194       134  POPE      H3X           -12.7869904448      -51.9173151953       14.3292905941  MEMB      134             0.0000000000
     15195       134  POPE      H3Y           -11.1327074329      -52.6576214985       14.1041471888  MEMB      134             0.0000000000
     15196       134  POPE      C34           -11.9832090638      -51.4529717329       12.4540967639  MEMB      134             0.0000000000
     15197       134  POPE      H4X           -11.0530352702      -51.1735514658       11.9146321845  MEMB      134             0.0000000000
     15198       134  POPE      H4Y           -12.6788766373      -50.5904458004       12.3739926905  MEMB      134             0.0000000000
     15199       134  POPE      C35           -12.6826969894      -52.5071000004       11.7247377201  MEMB      134             0.0000000000
     15200       134  POPE      H5X           -13.7005353819      -52.6466510632       12.1476460209  MEMB      134             0.0000000000
     15201       134  POPE      H5Y           -12.1447316539      -53.4786904616       11.7551727996  MEMB      134             0.0000000000
     15202       134  POPE      C36           -12.8217893162      -52.2280494913       10.2142004338  MEMB      134             0.0000000000
     15203       134  POPE      H6X           -13.6743910070      -51.5196848216       10.1392930357  MEMB      134             0.0000000000
     15204       134  POPE      H6Y           -13.3527207305      -53.1224847669        9.8237924729  MEMB      134             0.0000000000
     15205       134  POPE      C37           -11.5985650258      -51.6692252105        9.3674468251  MEMB      134             0.0000000000
     15206       134  POPE      H7X           -10.7025518059      -52.3243808009        9.4149048762  MEMB      134             0.0000000000
     15207       134  POPE      H7Y           -11.3593845207      -50.7238279702        9.8997410104  MEMB      134             0.0000000000
     15208       134  POPE      C38           -12.0303207157      -51.4142099357        7.9335224005  MEMB      134             0.0000000000
     15209       134  POPE      H8X           -12.9041583432      -50.7282336154        7.9463705874  MEMB      134             0.0000000000
     15210       134  POPE      H8Y           -12.3696767485      -52.3630067815        7.4656095067  MEMB      134             0.0000000000
     15211       134  POPE      C39           -10.8891389158      -50.9783460069        6.9536562102  MEMB      134             0.0000000000
     15212       134  POPE      H9X           -10.3073639913      -50.2399145007        7.5457523347  MEMB      134             0.0000000000
     15213       134  POPE      H9Y           -11.5223064700      -50.6719364389        6.0936956768  MEMB      134             0.0000000000
     15214       134  POPE      C310           -9.9501069985      -52.0392509851        6.4803790651  MEMB      134             0.0000000000
     15215       134  POPE      H10X          -10.3982942980      -53.0201408900        6.2133510606  MEMB      134             0.0000000000
     15216       134  POPE      H10Y           -9.3492032881      -52.2456301600        7.3917749661  MEMB      134             0.0000000000
     15217       134  POPE      C311           -8.9362827201      -51.5645562298        5.3466774866  MEMB      134             0.0000000000
     15218       134  POPE      H11X           -8.1340505867      -52.3331515432        5.3490315777  MEMB      134             0.0000000000
     15219       134  POPE      H11Y           -8.5156055071      -50.5906920324        5.6767380899  MEMB      134             0.0000000000
     15220       134  POPE      C312           -9.5840813341      -51.2331486874        3.9966981010  MEMB      134             0.0000000000
     15221       134  POPE      H12X          -10.1245743059      -50.2752892243        4.1538404806  MEMB      134             0.0000000000
     15222       134  POPE      H12Y          -10.2957698243      -52.0357703397        3.7075294999  MEMB      134             0.0000000000
     15223       134  POPE      C313           -8.7595521743      -51.2556261377        2.7591817175  MEMB      134             0.0000000000
     15224       134  POPE      H13X           -8.1818761389      -52.2045986601        2.7512621656  MEMB      134             0.0000000000
     15225       134  POPE      H13Y           -8.0973746247      -50.3724717694        2.6331654910  MEMB      134             0.0000000000
     15226       134  POPE      C314           -9.5846478579      -51.2402836385        1.4714695474  MEMB      134             0.0000000000
     15227       134  POPE      H14X          -10.3450149145      -50.4354939509        1.5635384497  MEMB      134             0.0000000000
     15228       134  POPE      H14Y          -10.2904405267      -52.0964366795        1.5278538349  MEMB      134             0.0000000000
     15229       134  POPE      C315           -8.8961191058      -51.3020065487        0.1608004064  MEMB      134             0.0000000000
     15230       134  POPE      H15X           -9.6189725105      -51.5011196592       -0.6590527553  MEMB      134             0.0000000000
     15231       134  POPE      H15Y           -8.1704435832      -52.1425643332        0.1951382092  MEMB      134             0.0000000000
     15232       134  POPE      C316           -8.1343816054      -50.0496858123       -0.1989601557  MEMB      134             0.0000000000
     15233       134  POPE      H16X           -7.2294312752      -49.8341843572        0.4084479522  MEMB      134             0.0000000000
     15234       134  POPE      H16Y           -8.9334829023      -49.2799936724       -0.1412350517  MEMB      134             0.0000000000
     15235       134  POPE      H16Z           -7.7515769518      -50.1169056779       -1.2397595298  MEMB      134             0.0000000000
     15236       135  POPE      N             -24.6360362034      -36.9849817623       20.6372724875  MEMB      135             0.0000000000
     15237       135  POPE      HN1           -24.6819098966      -37.9834214133       20.9246982061  MEMB      135             0.0000000000
     15238       135  POPE      HN2           -24.2257511557      -36.3616142051       21.3616198751  MEMB      135             0.0000000000
     15239       135  POPE      HN3           -25.5829880554      -36.6347848840       20.3877839645  MEMB      135             0.0000000000
     15240       135  POPE      C12           -23.7916842698      -36.9765770312       19.4145015713  MEMB      135             0.0000000000
     15241       135  POPE      H12A          -22.8284899213      -37.4891587792       19.6238760356  MEMB      135             0.0000000000
     15242       135  POPE      H12B          -23.5689169447      -35.9446738352       19.0682768433  MEMB      135             0.0000000000
     15243       135  POPE      C11           -24.4527457191      -37.8378107047       18.2969068433  MEMB      135             0.0000000000
     15244       135  POPE      H11A          -23.5052365664      -37.9937663051       17.7381356382  MEMB      135             0.0000000000
     15245       135  POPE      H11B          -25.1946561519      -37.2667405614       17.6987691456  MEMB      135             0.0000000000
     15246       135  POPE      P             -24.1338070220      -40.3902750749       18.8365351205  MEMB      135             0.0000000000
     15247       135  POPE      O13           -24.9699841890      -41.4963192172       19.3138041907  MEMB      135             0.0000000000
     15248       135  POPE      O14           -22.7845202643      -40.1189820346       19.4167792508  MEMB      135             0.0000000000
     15249       135  POPE      O11           -24.0304824975      -40.6802966594       17.2001115136  MEMB      135             0.0000000000
     15250       135  POPE      O12           -24.9785150528      -39.0336703185       18.8840890225  MEMB      135             0.0000000000
     15251       135  POPE      C1            -25.2674491816      -40.8984511227       16.4794609026  MEMB      135             0.0000000000
     15252       135  POPE      HA            -25.9103729435      -40.0090527669       16.6524947796  MEMB      135             0.0000000000
     15253       135  POPE      HB            -25.5651600589      -41.9299036645       16.7654591072  MEMB      135             0.0000000000
     15254       135  POPE      C2            -24.9299141928      -40.8430891240       14.9608233665  MEMB      135             0.0000000000
     15255       135  POPE      HS            -25.8769264525      -41.1204365661       14.4503653388  MEMB      135             0.0000000000
     15256       135  POPE      O21           -23.8681112806      -41.8291121121       14.7369368318  MEMB      135             0.0000000000
     15257       135  POPE      C21           -23.9541493662      -42.5098605328       13.6083684830  MEMB      135             0.0000000000
     15258       135  POPE      O22           -24.7179272024      -42.3205962358       12.7184807635  MEMB      135             0.0000000000
     15259       135  POPE      C22           -22.7311288363      -43.5138045562       13.4072557034  MEMB      135             0.0000000000
     15260       135  POPE      H2R           -22.9315550732      -44.4517056694       12.8464606707  MEMB      135             0.0000000000
     15261       135  POPE      H2S           -22.3154633474      -43.8263656039       14.3890139307  MEMB      135             0.0000000000
     15262       135  POPE      C3            -24.5149453142      -39.3848936941       14.6285423843  MEMB      135             0.0000000000
     15263       135  POPE      HX            -24.0457541108      -38.8997022671       15.5110218742  MEMB      135             0.0000000000
     15264       135  POPE      HY            -25.5296038571      -38.9656729725       14.4581229771  MEMB      135             0.0000000000
     15265       135  POPE      O31           -23.5958681902      -39.2981142057       13.5154167694  MEMB      135             0.0000000000
     15266       135  POPE      C31           -23.8758022833      -38.3293488375       12.6100405305  MEMB      135             0.0000000000
     15267       135  POPE      O32           -24.9086775127      -37.6390265657       12.6109159223  MEMB      135             0.0000000000
     15268       135  POPE      C32           -22.7481178737      -38.1799295368       11.6043776864  MEMB      135             0.0000000000
     15269       135  POPE      H2X           -22.2602841219      -39.1770190329       11.5579903407  MEMB      135             0.0000000000
     15270       135  POPE      H2Y           -22.1194862442      -37.3593135627       12.0114805082  MEMB      135             0.0000000000
     15271       135  POPE      C23           -21.4662204167      -42.7941417278       12.8769934016  MEMB      135             0.0000000000
     15272       135  POPE      H3R           -20.6378251725      -43.4254415324       13.2637012752  MEMB      135             0.0000000000
     15273       135  POPE      H3S           -21.3212382303      -41.7695078004       13.2812533593  MEMB      135             0.0000000000
     15274       135  POPE      C24           -21.3359477787      -42.8856059477       11.3299799190  MEMB      135             0.0000000000
     15275       135  POPE      H4R           -21.8088121178      -43.8324740167       10.9921021805  MEMB      135             0.0000000000
     15276       135  POPE      H4S           -20.2769022918      -42.8129231576       11.0021678353  MEMB      135             0.0000000000
     15277       135  POPE      C25           -22.1409949261      -41.7876538067       10.6632261693  MEMB      135             0.0000000000
     15278       135  POPE      H5R           -21.4414815701      -40.9602450534       10.4174681100  MEMB      135             0.0000000000
     15279       135  POPE      H5S           -22.8058352860      -41.3597259318       11.4437296994  MEMB      135             0.0000000000
     15280       135  POPE      C26           -23.0579229753      -42.2932122833        9.5435494709  MEMB      135             0.0000000000
     15281       135  POPE      H6R           -23.8599568746      -41.5613214064        9.3081825974  MEMB      135             0.0000000000
     15282       135  POPE      H6S           -23.6916696106      -43.1291746671        9.9094097454  MEMB      135             0.0000000000
     15283       135  POPE      C27           -22.3815522176      -42.6507271004        8.3107089883  MEMB      135             0.0000000000
     15284       135  POPE      H7R           -22.8716613030      -43.4747752266        7.7494078425  MEMB      135             0.0000000000
     15285       135  POPE      H7S           -21.4972087721      -43.2089487774        8.6857365673  MEMB      135             0.0000000000
     15286       135  POPE      C28           -21.7936536972      -41.6329051357        7.4217155741  MEMB      135             0.0000000000
     15287       135  POPE      H8R           -21.1683362935      -42.1004890600        6.6313583349  MEMB      135             0.0000000000
     15288       135  POPE      H8S           -21.1554493666      -40.9958648973        8.0707111748  MEMB      135             0.0000000000
     15289       135  POPE      C29           -22.8680244591      -40.7124343438        6.8154580371  MEMB      135             0.0000000000
     15290       135  POPE      H91           -23.2228198390      -39.9306568569        7.5031673986  MEMB      135             0.0000000000
     15291       135  POPE      C210          -23.4938546690      -40.7643398213        5.5858541242  MEMB      135             0.0000000000
     15292       135  POPE      H101          -24.3351965139      -40.0775077084        5.4114816395  MEMB      135             0.0000000000
     15293       135  POPE      C211          -23.2805108831      -41.7621912707        4.5014023735  MEMB      135             0.0000000000
     15294       135  POPE      H11R          -24.1863519249      -41.9156450104        3.8767230988  MEMB      135             0.0000000000
     15295       135  POPE      H11S          -23.3267290612      -42.7762973955        4.9528156680  MEMB      135             0.0000000000
     15296       135  POPE      C212          -21.9550234070      -41.5953791592        3.8454905131  MEMB      135             0.0000000000
     15297       135  POPE      H12R          -21.5976537158      -42.5081054846        3.3224814023  MEMB      135             0.0000000000
     15298       135  POPE      H12S          -21.1689135342      -41.1433871770        4.4874059724  MEMB      135             0.0000000000
     15299       135  POPE      C213          -22.0306172280      -40.4171229231        2.8073073252  MEMB      135             0.0000000000
     15300       135  POPE      H13R          -21.0207736031      -40.0040606212        2.5977475082  MEMB      135             0.0000000000
     15301       135  POPE      H13S          -22.6606529645      -39.5965350178        3.2122913316  MEMB      135             0.0000000000
     15302       135  POPE      C214          -22.6598954862      -40.7031410628        1.4321018728  MEMB      135             0.0000000000
     15303       135  POPE      H14R          -23.6925406861      -41.0847940227        1.5814551211  MEMB      135             0.0000000000
     15304       135  POPE      H14S          -22.1334140632      -41.6298078258        1.1183706859  MEMB      135             0.0000000000
     15305       135  POPE      C215          -22.4879628549      -39.5987902743        0.4124420404  MEMB      135             0.0000000000
     15306       135  POPE      H15R          -21.4973815396      -39.5344937901       -0.0864918780  MEMB      135             0.0000000000
     15307       135  POPE      H15S          -22.5727926838      -38.6984812583        1.0578624162  MEMB      135             0.0000000000
     15308       135  POPE      C216          -23.6138692874      -39.3999119580       -0.5848684678  MEMB      135             0.0000000000
     15309       135  POPE      H16R          -24.5575162427      -39.4836653615       -0.0044930489  MEMB      135             0.0000000000
     15310       135  POPE      H16S          -23.6839701076      -40.2431600897       -1.3048272474  MEMB      135             0.0000000000
     15311       135  POPE      C217          -23.7015596923      -38.0084563780       -1.1259963460  MEMB      135             0.0000000000
     15312       135  POPE      H17R          -22.8638216721      -37.6264876871       -1.7477816741  MEMB      135             0.0000000000
     15313       135  POPE      H17S          -23.6735980781      -37.3156340775       -0.2579321899  MEMB      135             0.0000000000
     15314       135  POPE      C218          -24.9008228936      -37.8636008688       -2.0448546645  MEMB      135             0.0000000000
     15315       135  POPE      H18R          -24.7888764990      -38.5030868847       -2.9464343199  MEMB      135             0.0000000000
     15316       135  POPE      H18S          -24.9322605898      -36.8563161768       -2.5125197449  MEMB      135             0.0000000000
     15317       135  POPE      H18T          -25.9114921565      -38.0580170556       -1.6264385634  MEMB      135             0.0000000000
     15318       135  POPE      C33           -23.0845827602      -37.6425380473       10.2038621974  MEMB      135             0.0000000000
     15319       135  POPE      H3X           -23.6393762620      -36.6799846479       10.2078766057  MEMB      135             0.0000000000
     15320       135  POPE      H3Y           -23.5590539034      -38.4607182768        9.6209564387  MEMB      135             0.0000000000
     15321       135  POPE      C34           -21.8114513651      -37.2401832834        9.4604851853  MEMB      135             0.0000000000
     15322       135  POPE      H4X           -21.1281638943      -38.1083825499        9.5773998534  MEMB      135             0.0000000000
     15323       135  POPE      H4Y           -21.3611281548      -36.3379780497        9.9269135538  MEMB      135             0.0000000000
     15324       135  POPE      C35           -22.1867169233      -36.9497100364        7.9840116953  MEMB      135             0.0000000000
     15325       135  POPE      H5X           -22.6583948072      -35.9447017298        7.9415926906  MEMB      135             0.0000000000
     15326       135  POPE      H5Y           -22.9087389498      -37.6269549145        7.4796856223  MEMB      135             0.0000000000
     15327       135  POPE      C36           -20.9057224535      -36.9382236957        6.9950991615  MEMB      135             0.0000000000
     15328       135  POPE      H6X           -20.3692837178      -37.9001214895        7.1410673786  MEMB      135             0.0000000000
     15329       135  POPE      H6Y           -20.1670340949      -36.2074724514        7.3883711578  MEMB      135             0.0000000000
     15330       135  POPE      C37           -21.2345404096      -36.6970061291        5.4889940480  MEMB      135             0.0000000000
     15331       135  POPE      H7X           -21.9999954339      -37.4199650507        5.1344096998  MEMB      135             0.0000000000
     15332       135  POPE      H7Y           -20.2911717251      -36.9478759669        4.9584834565  MEMB      135             0.0000000000
     15333       135  POPE      C38           -21.7131063896      -35.3140439041        5.0696658374  MEMB      135             0.0000000000
     15334       135  POPE      H8X           -20.7374549496      -34.8042960817        4.9193908195  MEMB      135             0.0000000000
     15335       135  POPE      H8Y           -22.3168092581      -34.8225381302        5.8623109425  MEMB      135             0.0000000000
     15336       135  POPE      C39           -22.6329597532      -35.2467272877        3.7986400215  MEMB      135             0.0000000000
     15337       135  POPE      H9X           -22.8799365687      -34.1796272865        3.6125733477  MEMB      135             0.0000000000
     15338       135  POPE      H9Y           -23.6064861405      -35.7686188030        3.9177898106  MEMB      135             0.0000000000
     15339       135  POPE      C310          -21.9947542829      -35.9534970369        2.5760880634  MEMB      135             0.0000000000
     15340       135  POPE      H10X          -22.8004257556      -36.2398244440        1.8666994872  MEMB      135             0.0000000000
     15341       135  POPE      H10Y          -21.4663607214      -36.8912748491        2.8512133982  MEMB      135             0.0000000000
     15342       135  POPE      C311          -21.0767323332      -34.9366408323        1.8384624203  MEMB      135             0.0000000000
     15343       135  POPE      H11X          -20.3675639717      -34.4704536495        2.5554486953  MEMB      135             0.0000000000
     15344       135  POPE      H11Y          -21.7565116366      -34.1557679006        1.4353998153  MEMB      135             0.0000000000
     15345       135  POPE      C312          -20.3548377153      -35.5986139162        0.7669936776  MEMB      135             0.0000000000
     15346       135  POPE      H12X          -20.9649463738      -36.2049210287        0.0638009883  MEMB      135             0.0000000000
     15347       135  POPE      H12Y          -19.6721103539      -36.2787406808        1.3198331056  MEMB      135             0.0000000000
     15348       135  POPE      C313          -19.5047680613      -34.6097469893        0.0050183044  MEMB      135             0.0000000000
     15349       135  POPE      H13X          -18.9367079170      -33.8957154119        0.6388860198  MEMB      135             0.0000000000
     15350       135  POPE      H13Y          -20.0408463721      -33.9404604504       -0.7013783500  MEMB      135             0.0000000000
     15351       135  POPE      C314          -18.4381113063      -35.3714621197       -0.8038491123  MEMB      135             0.0000000000
     15352       135  POPE      H14X          -17.5892448267      -35.5871873104       -0.1203214827  MEMB      135             0.0000000000
     15353       135  POPE      H14Y          -17.9075173301      -34.6163789444       -1.4224284339  MEMB      135             0.0000000000
     15354       135  POPE      C315          -18.8953782658      -36.6792208062       -1.5837473438  MEMB      135             0.0000000000
     15355       135  POPE      H15X          -19.3466574141      -37.3459535621       -0.8181532887  MEMB      135             0.0000000000
     15356       135  POPE      H15Y          -18.0395658106      -37.1946282856       -2.0698159202  MEMB      135             0.0000000000
     15357       135  POPE      C316          -19.9689842779      -36.4313566398       -2.6281711563  MEMB      135             0.0000000000
     15358       135  POPE      H16X          -20.7176452430      -35.8065443050       -2.0957835844  MEMB      135             0.0000000000
     15359       135  POPE      H16Y          -20.4097858634      -37.3142549451       -3.1385684445  MEMB      135             0.0000000000
     15360       135  POPE      H16Z          -19.4801932374      -35.8475925361       -3.4372596644  MEMB      135             0.0000000000
     15361       136  POPE      N              28.5145581327      -34.5337123711       20.2541529966  MEMB      136             0.0000000000
     15362       136  POPE      HN1            27.6802654547      -34.8060476573       20.8121755543  MEMB      136             0.0000000000
     15363       136  POPE      HN2            29.3142786195      -34.7525878460       20.8819591583  MEMB      136             0.0000000000
     15364       136  POPE      HN3            28.5170973573      -33.5001887190       20.1382973862  MEMB      136             0.0000000000
     15365       136  POPE      C12            28.7362620959      -35.1934159489       18.9472257116  MEMB      136             0.0000000000
     15366       136  POPE      H12A           29.5573811418      -34.6106143842       18.4777293413  MEMB      136             0.0000000000
     15367       136  POPE      H12B           27.8639667959      -34.9590813489       18.3003027321  MEMB      136             0.0000000000
     15368       136  POPE      C11            29.1364587661      -36.6951645221       19.0547610770  MEMB      136             0.0000000000
     15369       136  POPE      H11A           30.0254334504      -36.7385949763       19.7197112162  MEMB      136             0.0000000000
     15370       136  POPE      H11B           29.4982351566      -37.0292186401       18.0588459987  MEMB      136             0.0000000000
     15371       136  POPE      P              26.9216911161      -37.9455829486       18.8070642302  MEMB      136             0.0000000000
     15372       136  POPE      O13            25.5756124185      -37.4531676354       19.1472891653  MEMB      136             0.0000000000
     15373       136  POPE      O14            26.9784960334      -39.4649247499       18.7653931090  MEMB      136             0.0000000000
     15374       136  POPE      O11            27.2991814657      -37.5527264845       17.2648787599  MEMB      136             0.0000000000
     15375       136  POPE      O12            28.0716951711      -37.3709789392       19.7592349483  MEMB      136             0.0000000000
     15376       136  POPE      C1             26.4838252904      -36.8138960242       16.3521417914  MEMB      136             0.0000000000
     15377       136  POPE      HA             27.0629315878      -35.9338975274       15.9992117639  MEMB      136             0.0000000000
     15378       136  POPE      HB             25.5302494560      -36.4425017125       16.7846697160  MEMB      136             0.0000000000
     15379       136  POPE      C2             26.0720526680      -37.6583360619       15.1055964522  MEMB      136             0.0000000000
     15380       136  POPE      HS             25.4133569901      -38.4790836981       15.4617064924  MEMB      136             0.0000000000
     15381       136  POPE      O21            27.2545008943      -38.1197550924       14.4565348628  MEMB      136             0.0000000000
     15382       136  POPE      C21            27.1456823971      -39.0219543104       13.5325846694  MEMB      136             0.0000000000
     15383       136  POPE      O22            26.1018583264      -39.6674717773       13.3153837291  MEMB      136             0.0000000000
     15384       136  POPE      C22            28.5173556134      -39.2377284687       12.8792458538  MEMB      136             0.0000000000
     15385       136  POPE      H2R            29.3881404168      -38.8706597661       13.4634678199  MEMB      136             0.0000000000
     15386       136  POPE      H2S            28.5352857849      -38.6738838464       11.9221257855  MEMB      136             0.0000000000
     15387       136  POPE      C3             25.2119462773      -36.7187158114       14.1643440464  MEMB      136             0.0000000000
     15388       136  POPE      HX             24.3901445195      -36.3660821082       14.8235953491  MEMB      136             0.0000000000
     15389       136  POPE      HY             24.8595947212      -37.3121569430       13.2937134217  MEMB      136             0.0000000000
     15390       136  POPE      O31            26.0204706791      -35.5696031837       13.6835294668  MEMB      136             0.0000000000
     15391       136  POPE      C31            25.2875855564      -34.7438971207       13.0589946637  MEMB      136             0.0000000000
     15392       136  POPE      O32            24.1190425054      -34.7696648385       12.8905869878  MEMB      136             0.0000000000
     15393       136  POPE      C32            26.1518397053      -33.6989626225       12.4131085337  MEMB      136             0.0000000000
     15394       136  POPE      H2X            27.1406867163      -33.5040529162       12.8805620365  MEMB      136             0.0000000000
     15395       136  POPE      H2Y            25.6378517841      -32.7222222707       12.5400558467  MEMB      136             0.0000000000
     15396       136  POPE      C23            28.7035995528      -40.7537359020       12.5225986790  MEMB      136             0.0000000000
     15397       136  POPE      H3R            27.7746959142      -41.1129647155       12.0302434882  MEMB      136             0.0000000000
     15398       136  POPE      H3S            28.7494914397      -41.3519785389       13.4576498451  MEMB      136             0.0000000000
     15399       136  POPE      C24            29.9431032198      -41.1834316532       11.6973173105  MEMB      136             0.0000000000
     15400       136  POPE      H4R            29.8315031258      -42.2679205106       11.4834247232  MEMB      136             0.0000000000
     15401       136  POPE      H4S            30.9424087594      -40.9003725874       12.0917625416  MEMB      136             0.0000000000
     15402       136  POPE      C25            30.0698313450      -40.4044764800       10.3336358266  MEMB      136             0.0000000000
     15403       136  POPE      H5R            31.0649727440      -40.6423524784        9.9007045790  MEMB      136             0.0000000000
     15404       136  POPE      H5S            29.9602026014      -39.3075260106       10.4714842017  MEMB      136             0.0000000000
     15405       136  POPE      C26            29.0698892140      -40.6725498691        9.1630451720  MEMB      136             0.0000000000
     15406       136  POPE      H6R            28.8064997087      -41.7512845773        9.1272908280  MEMB      136             0.0000000000
     15407       136  POPE      H6S            29.6104566270      -40.3776249686        8.2383144716  MEMB      136             0.0000000000
     15408       136  POPE      C27            27.7212499609      -39.9059954120        9.3110530195  MEMB      136             0.0000000000
     15409       136  POPE      H7R            27.8801069933      -38.8114662718        9.4163689592  MEMB      136             0.0000000000
     15410       136  POPE      H7S            27.2027292691      -40.2033818311       10.2475451873  MEMB      136             0.0000000000
     15411       136  POPE      C28            26.9964754439      -40.1415882637        7.9736256213  MEMB      136             0.0000000000
     15412       136  POPE      H8R            27.1187354161      -41.1935900205        7.6379680131  MEMB      136             0.0000000000
     15413       136  POPE      H8S            27.6752685301      -39.6758876049        7.2275134462  MEMB      136             0.0000000000
     15414       136  POPE      C29            25.6108412638      -39.6700188917        7.8677511489  MEMB      136             0.0000000000
     15415       136  POPE      H91            24.8583014967      -40.4524755037        8.0450812516  MEMB      136             0.0000000000
     15416       136  POPE      C210           25.2230505009      -38.4864368139        7.4774160790  MEMB      136             0.0000000000
     15417       136  POPE      H101           24.1348438664      -38.3552655883        7.3846772202  MEMB      136             0.0000000000
     15418       136  POPE      C211           26.1231982583      -37.3107686992        7.0585554852  MEMB      136             0.0000000000
     15419       136  POPE      H11R           27.1385760023      -37.3906397701        7.5023462297  MEMB      136             0.0000000000
     15420       136  POPE      H11S           25.6014940065      -36.4752857326        7.5724757975  MEMB      136             0.0000000000
     15421       136  POPE      C212           26.3171577018      -36.9875975347        5.6019672978  MEMB      136             0.0000000000
     15422       136  POPE      H12R           27.1907511511      -36.3027940401        5.5550652274  MEMB      136             0.0000000000
     15423       136  POPE      H12S           25.4326940209      -36.5743189203        5.0716410636  MEMB      136             0.0000000000
     15424       136  POPE      C213           26.8470403505      -38.1570924907        4.6917167442  MEMB      136             0.0000000000
     15425       136  POPE      H13R           26.1922645100      -39.0545787270        4.6813446199  MEMB      136             0.0000000000
     15426       136  POPE      H13S           27.8216248558      -38.5867520219        5.0077843795  MEMB      136             0.0000000000
     15427       136  POPE      C214           27.1003613121      -37.6694539551        3.1942958534  MEMB      136             0.0000000000
     15428       136  POPE      H14R           27.4344487936      -38.5545678418        2.6118178794  MEMB      136             0.0000000000
     15429       136  POPE      H14S           27.9834469159      -37.0078308868        3.3236626320  MEMB      136             0.0000000000
     15430       136  POPE      C215           25.8354915025      -36.9807189876        2.5250151551  MEMB      136             0.0000000000
     15431       136  POPE      H15R           25.6796781742      -36.0829239573        3.1606307772  MEMB      136             0.0000000000
     15432       136  POPE      H15S           24.8942784833      -37.5650673720        2.4414893655  MEMB      136             0.0000000000
     15433       136  POPE      C216           26.2626256216      -36.5291171219        1.1075859489  MEMB      136             0.0000000000
     15434       136  POPE      H16R           25.4802961649      -35.8060886608        0.7921313711  MEMB      136             0.0000000000
     15435       136  POPE      H16S           26.3186852327      -37.4417613729        0.4765084457  MEMB      136             0.0000000000
     15436       136  POPE      C217           27.5242116365      -35.6203155364        0.9654550778  MEMB      136             0.0000000000
     15437       136  POPE      H17R           28.4560808682      -36.1484722603        1.2603975123  MEMB      136             0.0000000000
     15438       136  POPE      H17S           27.3604711369      -34.6654145503        1.5092143998  MEMB      136             0.0000000000
     15439       136  POPE      C218           27.5930052459      -35.1206787011       -0.4848233975  MEMB      136             0.0000000000
     15440       136  POPE      H18R           28.2784056642      -34.2498845173       -0.5639743428  MEMB      136             0.0000000000
     15441       136  POPE      H18S           26.6199063192      -34.7085133269       -0.8276347855  MEMB      136             0.0000000000
     15442       136  POPE      H18T           28.0890194228      -35.8825531647       -1.1234453368  MEMB      136             0.0000000000
     15443       136  POPE      C33            26.4358352477      -33.9763927113       10.9261833488  MEMB      136             0.0000000000
     15444       136  POPE      H3X            26.9464696703      -33.0409752798       10.6122281852  MEMB      136             0.0000000000
     15445       136  POPE      H3Y            25.4580740271      -34.1046144873       10.4144578037  MEMB      136             0.0000000000
     15446       136  POPE      C34            27.2433767377      -35.2406821739       10.6035740625  MEMB      136             0.0000000000
     15447       136  POPE      H4X            27.2405741663      -35.5117058564        9.5261425199  MEMB      136             0.0000000000
     15448       136  POPE      H4Y            26.8753955881      -35.9862416063       11.3404946475  MEMB      136             0.0000000000
     15449       136  POPE      C35            28.7140837557      -35.0063293035       10.9079301178  MEMB      136             0.0000000000
     15450       136  POPE      H5X            28.9628282492      -34.6574246970       11.9329723451  MEMB      136             0.0000000000
     15451       136  POPE      H5Y            28.9732203664      -34.0965890900       10.3252274891  MEMB      136             0.0000000000
     15452       136  POPE      C36            29.6909442353      -36.1236444369       10.3887259572  MEMB      136             0.0000000000
     15453       136  POPE      H6X            29.4423688519      -37.0495920786       10.9501104098  MEMB      136             0.0000000000
     15454       136  POPE      H6Y            30.6469630788      -35.7895609236       10.8456034323  MEMB      136             0.0000000000
     15455       136  POPE      C37            29.8337328844      -36.2169861127        8.8645060156  MEMB      136             0.0000000000
     15456       136  POPE      H7X            29.7040208638      -35.1728915080        8.5076279277  MEMB      136             0.0000000000
     15457       136  POPE      H7Y            28.9477625001      -36.7024003735        8.4021744018  MEMB      136             0.0000000000
     15458       136  POPE      C38            31.1388962755      -36.8528828533        8.3714143761  MEMB      136             0.0000000000
     15459       136  POPE      H8X            31.1936730414      -37.8436340786        8.8711472927  MEMB      136             0.0000000000
     15460       136  POPE      H8Y            31.9263316229      -36.2094653257        8.8189417073  MEMB      136             0.0000000000
     15461       136  POPE      C39            31.0736385039      -37.0597002442        6.8279758955  MEMB      136             0.0000000000
     15462       136  POPE      H9X            30.0209095349      -37.1940330185        6.4992853918  MEMB      136             0.0000000000
     15463       136  POPE      H9Y            31.5183069032      -38.0733900261        6.7329799615  MEMB      136             0.0000000000
     15464       136  POPE      C310           31.7559123937      -36.0379881645        6.0835423281  MEMB      136             0.0000000000
     15465       136  POPE      H10X           32.8386359558      -35.9961081784        6.3290556202  MEMB      136             0.0000000000
     15466       136  POPE      H10Y           31.5009371669      -34.9711963332        6.2603571626  MEMB      136             0.0000000000
     15467       136  POPE      C311           31.4571774325      -36.2620987140        4.5870341652  MEMB      136             0.0000000000
     15468       136  POPE      H11X           30.3593858372      -36.4284206398        4.5481526836  MEMB      136             0.0000000000
     15469       136  POPE      H11Y           31.9541969970      -37.2455551142        4.4452381022  MEMB      136             0.0000000000
     15470       136  POPE      C312           31.8401924430      -35.1223242029        3.7112641280  MEMB      136             0.0000000000
     15471       136  POPE      H12X           32.7557160258      -34.5877944034        4.0435516092  MEMB      136             0.0000000000
     15472       136  POPE      H12Y           30.9628457502      -34.4429870396        3.7668047903  MEMB      136             0.0000000000
     15473       136  POPE      C313           31.9109028044      -35.4953816562        2.2464391336  MEMB      136             0.0000000000
     15474       136  POPE      H13X           32.2368323312      -34.6129125515        1.6553908314  MEMB      136             0.0000000000
     15475       136  POPE      H13Y           30.9206892225      -35.8167966312        1.8585082509  MEMB      136             0.0000000000
     15476       136  POPE      C314           32.9117910382      -36.5455003898        1.8957984956  MEMB      136             0.0000000000
     15477       136  POPE      H14X           32.5318399716      -37.5199010125        2.2706324183  MEMB      136             0.0000000000
     15478       136  POPE      H14Y           33.8222718743      -36.2535594692        2.4615856141  MEMB      136             0.0000000000
     15479       136  POPE      C315           33.2915190295      -36.6175998895        0.4376322426  MEMB      136             0.0000000000
     15480       136  POPE      H15X           34.1042445372      -37.3578639665        0.2769852010  MEMB      136             0.0000000000
     15481       136  POPE      H15Y           33.6167226586      -35.6138706685        0.0896489748  MEMB      136             0.0000000000
     15482       136  POPE      C316           32.1537634061      -37.0625658255       -0.3828335471  MEMB      136             0.0000000000
     15483       136  POPE      H16X           32.4055946477      -37.1895354187       -1.4574403567  MEMB      136             0.0000000000
     15484       136  POPE      H16Y           31.3332249175      -36.3156376196       -0.3268328538  MEMB      136             0.0000000000
     15485       136  POPE      H16Z           31.7715007048      -38.0268469101        0.0151096733  MEMB      136             0.0000000000
     15486       137  POPC      N             -43.1921051377      -15.6475918346       19.6039116036  MEMB      137             0.0000000000
     15487       137  POPC      C12           -43.4249083546      -16.9514924861       18.9189541272  MEMB      137             0.0000000000
     15488       137  POPC      H12A          -43.6304600003      -17.7441101089       19.6231599439  MEMB      137             0.0000000000
     15489       137  POPC      H12B          -42.5615547063      -17.2280145432       18.3319650312  MEMB      137             0.0000000000
     15490       137  POPC      C13           -44.2986243632      -15.3138632191       20.5282926505  MEMB      137             0.0000000000
     15491       137  POPC      H13A          -44.1571444356      -14.3185764062       20.9229921349  MEMB      137             0.0000000000
     15492       137  POPC      H13B          -45.2878478023      -15.3014833450       20.0950677512  MEMB      137             0.0000000000
     15493       137  POPC      H13C          -44.2982541381      -16.0241601717       21.3418515826  MEMB      137             0.0000000000
     15494       137  POPC      C14           -41.9685054552      -15.8877118363       20.4391564872  MEMB      137             0.0000000000
     15495       137  POPC      H14A          -42.1304794946      -16.6580952694       21.1785304667  MEMB      137             0.0000000000
     15496       137  POPC      H14B          -41.1899369467      -16.2587796904       19.7891258473  MEMB      137             0.0000000000
     15497       137  POPC      H14C          -41.6745831152      -14.9396965096       20.8649224077  MEMB      137             0.0000000000
     15498       137  POPC      C15           -42.9463540963      -14.5358781481       18.6033910365  MEMB      137             0.0000000000
     15499       137  POPC      H15A          -43.8886166322      -14.2286065044       18.1742926400  MEMB      137             0.0000000000
     15500       137  POPC      H15B          -42.3180731254      -14.8782040810       17.7943941661  MEMB      137             0.0000000000
     15501       137  POPC      H15C          -42.4985568200      -13.6997702300       19.1199188014  MEMB      137             0.0000000000
     15502       137  POPC      C11           -44.6324486907      -17.0493309262       17.9434279534  MEMB      137             0.0000000000
     15503       137  POPC      H11A          -44.6392534915      -18.0971352180       17.5741301339  MEMB      137             0.0000000000
     15504       137  POPC      H11B          -44.3930946060      -16.4598386626       17.0326429197  MEMB      137             0.0000000000
     15505       137  POPC      P             -47.1612732436      -17.6067000142       18.6483725112  MEMB      137             0.0000000000
     15506       137  POPC      O13           -48.1459612588      -16.8095348191       19.3861749020  MEMB      137             0.0000000000
     15507       137  POPC      O14           -46.7619541410      -18.9429530564       19.2132447701  MEMB      137             0.0000000000
     15508       137  POPC      O12           -45.8517196919      -16.7161283553       18.5705844057  MEMB      137             0.0000000000
     15509       137  POPC      O11           -47.7155185141      -17.6614077282       17.1444895477  MEMB      137             0.0000000000
     15510       137  POPC      C1            -47.4707088254      -18.8696102571       16.5168970368  MEMB      137             0.0000000000
     15511       137  POPC      HA            -47.8947560717      -19.7568816629       17.0338638688  MEMB      137             0.0000000000
     15512       137  POPC      HB            -46.3906236441      -19.1094983301       16.4159476891  MEMB      137             0.0000000000
     15513       137  POPC      C2            -48.0995280089      -18.9783899492       15.0922974827  MEMB      137             0.0000000000
     15514       137  POPC      HS            -47.7716120027      -19.9766347735       14.7313268627  MEMB      137             0.0000000000
     15515       137  POPC      O21           -47.7180922929      -17.9365364255       14.2961348083  MEMB      137             0.0000000000
     15516       137  POPC      C21           -46.4485300647      -18.0931228681       13.7441331577  MEMB      137             0.0000000000
     15517       137  POPC      O22           -45.6834549215      -18.9336840256       14.0303695382  MEMB      137             0.0000000000
     15518       137  POPC      C22           -46.2339507437      -16.9819921195       12.6899083259  MEMB      137             0.0000000000
     15519       137  POPC      H2R           -45.9616269264      -17.4616505885       11.7254977043  MEMB      137             0.0000000000
     15520       137  POPC      H2S           -45.4354211298      -16.4063748067       13.2050163181  MEMB      137             0.0000000000
     15521       137  POPC      C3            -49.6216797037      -19.1132155455       15.0204707718  MEMB      137             0.0000000000
     15522       137  POPC      HX            -50.0895737821      -18.4635402239       15.7907423459  MEMB      137             0.0000000000
     15523       137  POPC      HY            -50.0299439077      -20.0879985464       15.3631653321  MEMB      137             0.0000000000
     15524       137  POPC      O31           -50.1301519016      -18.8583190014       13.7027377937  MEMB      137             0.0000000000
     15525       137  POPC      C31           -49.8381447743      -19.6762536040       12.7255236532  MEMB      137             0.0000000000
     15526       137  POPC      O32           -49.1219206937      -20.6373930937       12.8861262847  MEMB      137             0.0000000000
     15527       137  POPC      C32           -50.4910550120      -19.1716421379       11.4790305284  MEMB      137             0.0000000000
     15528       137  POPC      H2X           -50.2243336961      -18.1198841638       11.2403135564  MEMB      137             0.0000000000
     15529       137  POPC      H2Y           -51.5925263965      -19.2302712561       11.6118629988  MEMB      137             0.0000000000
     15530       137  POPC      C23           -47.3969262863      -16.0489651010       12.4916107197  MEMB      137             0.0000000000
     15531       137  POPC      H3R           -47.2772280227      -15.2181047030       13.2193910889  MEMB      137             0.0000000000
     15532       137  POPC      H3S           -48.3936955819      -16.4918157734       12.7029286310  MEMB      137             0.0000000000
     15533       137  POPC      C24           -47.5079868057      -15.4092032688       11.0705397033  MEMB      137             0.0000000000
     15534       137  POPC      H4R           -47.8859275373      -16.1901711890       10.3765863769  MEMB      137             0.0000000000
     15535       137  POPC      H4S           -46.5004346323      -15.1528414671       10.6788283835  MEMB      137             0.0000000000
     15536       137  POPC      C25           -48.4473052834      -14.1609163914       10.9582948171  MEMB      137             0.0000000000
     15537       137  POPC      H5R           -48.0316103957      -13.4266354004       11.6810332203  MEMB      137             0.0000000000
     15538       137  POPC      H5S           -49.4876600263      -14.3900573211       11.2736956311  MEMB      137             0.0000000000
     15539       137  POPC      C26           -48.4659652746      -13.6765509291        9.5373267698  MEMB      137             0.0000000000
     15540       137  POPC      H6R           -47.4355723928      -13.7876814384        9.1370003803  MEMB      137             0.0000000000
     15541       137  POPC      H6S           -48.6111583492      -12.5752826085        9.5584872374  MEMB      137             0.0000000000
     15542       137  POPC      C27           -49.5703132746      -14.2541723277        8.6835142282  MEMB      137             0.0000000000
     15543       137  POPC      H7R           -49.7197627710      -13.5074499267        7.8745696520  MEMB      137             0.0000000000
     15544       137  POPC      H7S           -50.4486132587      -14.4707492401        9.3284984867  MEMB      137             0.0000000000
     15545       137  POPC      C28           -49.0905375378      -15.5421392919        7.9129944895  MEMB      137             0.0000000000
     15546       137  POPC      H8R           -48.9011731739      -16.3390885482        8.6635500841  MEMB      137             0.0000000000
     15547       137  POPC      H8S           -48.1482518751      -15.2744329995        7.3888263193  MEMB      137             0.0000000000
     15548       137  POPC      C29           -50.0477829069      -15.9863535806        6.8744158746  MEMB      137             0.0000000000
     15549       137  POPC      H91           -50.6342811910      -16.8137206084        7.3004251136  MEMB      137             0.0000000000
     15550       137  POPC      C210          -50.2291554958      -15.6358503308        5.6050728691  MEMB      137             0.0000000000
     15551       137  POPC      H101          -50.9895765115      -16.1673625744        5.0140952368  MEMB      137             0.0000000000
     15552       137  POPC      C211          -49.4300841417      -14.5793662639        4.8081131294  MEMB      137             0.0000000000
     15553       137  POPC      H11R          -48.9290950462      -13.8955242157        5.5262296374  MEMB      137             0.0000000000
     15554       137  POPC      H11S          -50.2079963697      -14.0191018884        4.2466174283  MEMB      137             0.0000000000
     15555       137  POPC      C212          -48.3711726450      -15.1380055950        3.8403197943  MEMB      137             0.0000000000
     15556       137  POPC      H12R          -47.6379447423      -15.5848863809        4.5452986480  MEMB      137             0.0000000000
     15557       137  POPC      H12S          -47.9217915927      -14.2480832186        3.3499976194  MEMB      137             0.0000000000
     15558       137  POPC      C213          -48.9276006764      -16.1572022920        2.8466110747  MEMB      137             0.0000000000
     15559       137  POPC      H13R          -49.8398662293      -15.7477977104        2.3623799377  MEMB      137             0.0000000000
     15560       137  POPC      H13S          -49.2404182359      -17.1092756946        3.3262172281  MEMB      137             0.0000000000
     15561       137  POPC      C214          -47.9827730352      -16.5739850744        1.7238497292  MEMB      137             0.0000000000
     15562       137  POPC      H14R          -47.0809895498      -17.0968783107        2.1081561584  MEMB      137             0.0000000000
     15563       137  POPC      H14S          -47.6999104016      -15.7605376412        1.0219863477  MEMB      137             0.0000000000
     15564       137  POPC      C215          -48.6296199969      -17.6561596424        1.0162280055  MEMB      137             0.0000000000
     15565       137  POPC      H15R          -49.7115529770      -17.4578207362        0.8600100432  MEMB      137             0.0000000000
     15566       137  POPC      H15S          -48.6577929811      -18.5479253980        1.6782557149  MEMB      137             0.0000000000
     15567       137  POPC      C216          -48.0188679692      -17.9326506005       -0.4012617814  MEMB      137             0.0000000000
     15568       137  POPC      H16R          -48.3935272861      -18.9312970646       -0.7121590855  MEMB      137             0.0000000000
     15569       137  POPC      H16S          -46.9116865416      -17.9257400136       -0.3094860175  MEMB      137             0.0000000000
     15570       137  POPC      C217          -48.2528833551      -16.9270235601       -1.5230138931  MEMB      137             0.0000000000
     15571       137  POPC      H17R          -47.3688105952      -17.1185333352       -2.1680427603  MEMB      137             0.0000000000
     15572       137  POPC      H17S          -48.1814162370      -15.8578887417       -1.2294782957  MEMB      137             0.0000000000
     15573       137  POPC      C218          -49.6251009846      -17.1805497061       -2.2830718812  MEMB      137             0.0000000000
     15574       137  POPC      H18R          -50.5238926299      -16.8689452546       -1.7091411098  MEMB      137             0.0000000000
     15575       137  POPC      H18S          -49.5380439596      -18.2378752866       -2.6129276903  MEMB      137             0.0000000000
     15576       137  POPC      H18T          -49.5776222599      -16.5573736225       -3.2016142232  MEMB      137             0.0000000000
     15577       137  POPC      C33           -50.0319449962      -20.0393066733       10.2534958403  MEMB      137             0.0000000000
     15578       137  POPC      H3X           -50.8306685855      -19.8079704331        9.5167154754  MEMB      137             0.0000000000
     15579       137  POPC      H3Y           -50.0447849714      -21.1046687356       10.5683924853  MEMB      137             0.0000000000
     15580       137  POPC      C34           -48.6682951500      -19.6597868835        9.6597903667  MEMB      137             0.0000000000
     15581       137  POPC      H4X           -47.9299505471      -19.9105345734       10.4511782547  MEMB      137             0.0000000000
     15582       137  POPC      H4Y           -48.5796019020      -18.5776704972        9.4242515230  MEMB      137             0.0000000000
     15583       137  POPC      C35           -48.3424589152      -20.4600323492        8.4538449562  MEMB      137             0.0000000000
     15584       137  POPC      H5X           -49.3142315890      -20.5123871231        7.9178989341  MEMB      137             0.0000000000
     15585       137  POPC      H5Y           -48.1307862718      -21.4805793548        8.8385522003  MEMB      137             0.0000000000
     15586       137  POPC      C36           -46.9994761453      -19.9617937134        7.8258433143  MEMB      137             0.0000000000
     15587       137  POPC      H6X           -46.8612103343      -20.8326917457        7.1500171458  MEMB      137             0.0000000000
     15588       137  POPC      H6Y           -46.2163583718      -19.8260219442        8.6021254008  MEMB      137             0.0000000000
     15589       137  POPC      C37           -47.1641359313      -18.6627071021        7.0095246301  MEMB      137             0.0000000000
     15590       137  POPC      H7X           -46.8722659696      -17.8580034154        7.7177516456  MEMB      137             0.0000000000
     15591       137  POPC      H7Y           -48.2186412396      -18.5276008844        6.6869016260  MEMB      137             0.0000000000
     15592       137  POPC      C38           -46.2603428648      -18.5165904428        5.8149804153  MEMB      137             0.0000000000
     15593       137  POPC      H8X           -46.4254498919      -17.4581503296        5.5204208503  MEMB      137             0.0000000000
     15594       137  POPC      H8Y           -46.6152412874      -19.2401650798        5.0502531758  MEMB      137             0.0000000000
     15595       137  POPC      C39           -44.7391274235      -18.7876811479        5.9979343163  MEMB      137             0.0000000000
     15596       137  POPC      H9X           -44.6122683317      -19.8624020604        6.2493360831  MEMB      137             0.0000000000
     15597       137  POPC      H9Y           -44.3567512280      -18.1789832904        6.8450453635  MEMB      137             0.0000000000
     15598       137  POPC      C310          -43.8030202828      -18.5075475359        4.7992014395  MEMB      137             0.0000000000
     15599       137  POPC      H10X          -43.8206537971      -19.4849417155        4.2712710517  MEMB      137             0.0000000000
     15600       137  POPC      H10Y          -42.7445353467      -18.2869233246        5.0546532045  MEMB      137             0.0000000000
     15601       137  POPC      C311          -44.2649571345      -17.4265659345        3.8109470754  MEMB      137             0.0000000000
     15602       137  POPC      H11X          -44.3402235420      -16.5523127352        4.4923696072  MEMB      137             0.0000000000
     15603       137  POPC      H11Y          -45.1911120696      -17.7758179733        3.3063863941  MEMB      137             0.0000000000
     15604       137  POPC      C312          -43.1859908166      -17.0932861948        2.7566361036  MEMB      137             0.0000000000
     15605       137  POPC      H12X          -42.5514461466      -18.0050617478        2.7382227830  MEMB      137             0.0000000000
     15606       137  POPC      H12Y          -42.4202213021      -16.3466637345        3.0574240331  MEMB      137             0.0000000000
     15607       137  POPC      C313          -43.6706966372      -16.7492594439        1.3767002488  MEMB      137             0.0000000000
     15608       137  POPC      H13X          -44.4191089626      -17.5394725740        1.1536209133  MEMB      137             0.0000000000
     15609       137  POPC      H13Y          -42.9355472948      -16.9780732093        0.5757502180  MEMB      137             0.0000000000
     15610       137  POPC      C314          -44.3165127368      -15.3350083321        1.0570655608  MEMB      137             0.0000000000
     15611       137  POPC      H14X          -43.4450811176      -14.6483603006        0.9983935418  MEMB      137             0.0000000000
     15612       137  POPC      H14Y          -44.9828124446      -14.9305279172        1.8487492937  MEMB      137             0.0000000000
     15613       137  POPC      C315          -45.0937724141      -15.3197046774       -0.3086092045  MEMB      137             0.0000000000
     15614       137  POPC      H15X          -45.5331162646      -14.3002148132       -0.3526350397  MEMB      137             0.0000000000
     15615       137  POPC      H15Y          -45.8744525461      -16.1094985983       -0.3415476815  MEMB      137             0.0000000000
     15616       137  POPC      C316          -44.2552154220      -15.4300164638       -1.5533553741  MEMB      137             0.0000000000
     15617       137  POPC      H16X          -43.9320448764      -16.4750908511       -1.7475214007  MEMB      137             0.0000000000
     15618       137  POPC      H16Y          -43.4103943603      -14.7450544838       -1.3265814142  MEMB      137             0.0000000000
     15619       137  POPC      H16Z          -44.9164102760      -15.1628288463       -2.4052660742  MEMB      137             0.0000000000
     15620       138  POPE      N             -52.3128798049       -5.3621708389       16.5270282692  MEMB      138             0.0000000000
     15621       138  POPE      HN1           -52.3957003505       -4.3263151991       16.4852690396  MEMB      138             0.0000000000
     15622       138  POPE      HN2           -51.6218675852       -5.6996916257       15.8268980476  MEMB      138             0.0000000000
     15623       138  POPE      HN3           -53.2370204805       -5.8100116853       16.3627036771  MEMB      138             0.0000000000
     15624       138  POPE      C12           -51.7338652588       -5.6833543920       17.9280955226  MEMB      138             0.0000000000
     15625       138  POPE      H12A          -50.8930045250       -6.3925712065       17.7722562511  MEMB      138             0.0000000000
     15626       138  POPE      H12B          -52.5585568323       -6.2152560873       18.4489460444  MEMB      138             0.0000000000
     15627       138  POPE      C11           -51.0485524418       -4.4523275125       18.6718620914  MEMB      138             0.0000000000
     15628       138  POPE      H11A          -50.1806574745       -4.0845937115       18.0837710826  MEMB      138             0.0000000000
     15629       138  POPE      H11B          -50.6298365072       -4.8502405326       19.6208947627  MEMB      138             0.0000000000
     15630       138  POPE      P             -53.2201251057       -3.3727932799       19.8449390022  MEMB      138             0.0000000000
     15631       138  POPE      O13           -52.9171506805       -3.4964918937       21.3160833173  MEMB      138             0.0000000000
     15632       138  POPE      O14           -54.1337048401       -4.3707995343       19.2382693963  MEMB      138             0.0000000000
     15633       138  POPE      O11           -53.8176254678       -1.9262400858       19.5489771104  MEMB      138             0.0000000000
     15634       138  POPE      O12           -51.8794108007       -3.3110503058       18.9247452884  MEMB      138             0.0000000000
     15635       138  POPE      C1            -53.0878943008       -0.7378592384       19.2659040336  MEMB      138             0.0000000000
     15636       138  POPE      HA            -52.0676357842       -0.8049993532       19.7005139332  MEMB      138             0.0000000000
     15637       138  POPE      HB            -53.6628699882        0.0842704844       19.7432158964  MEMB      138             0.0000000000
     15638       138  POPE      C2            -52.9088402917       -0.5746807173       17.7371727224  MEMB      138             0.0000000000
     15639       138  POPE      HS            -53.3637085372        0.4075873221       17.4870424068  MEMB      138             0.0000000000
     15640       138  POPE      O21           -53.5212805927       -1.6700218447       17.0187762631  MEMB      138             0.0000000000
     15641       138  POPE      C21           -54.3254801924       -1.4020263861       16.0421811044  MEMB      138             0.0000000000
     15642       138  POPE      O22           -54.8112611350       -0.2977813917       15.7348262564  MEMB      138             0.0000000000
     15643       138  POPE      C22           -54.7442600256       -2.7390525073       15.3267414714  MEMB      138             0.0000000000
     15644       138  POPE      H2R           -55.4702106710       -3.1497213657       16.0606815053  MEMB      138             0.0000000000
     15645       138  POPE      H2S           -53.8623627839       -3.4137223193       15.2893399608  MEMB      138             0.0000000000
     15646       138  POPE      C3            -51.4519977662       -0.4325596715       17.2130385178  MEMB      138             0.0000000000
     15647       138  POPE      HX            -50.9997074725       -1.4200619677       17.4466911878  MEMB      138             0.0000000000
     15648       138  POPE      HY            -51.0190170141        0.4456747559       17.7379701123  MEMB      138             0.0000000000
     15649       138  POPE      O31           -51.3939195966       -0.1830699818       15.7910822509  MEMB      138             0.0000000000
     15650       138  POPE      C31           -50.2440263609       -0.4345783374       15.2439334979  MEMB      138             0.0000000000
     15651       138  POPE      O32           -49.2526573667       -0.9746732119       15.7696272578  MEMB      138             0.0000000000
     15652       138  POPE      C32           -50.4511430091       -0.1673962095       13.7181905699  MEMB      138             0.0000000000
     15653       138  POPE      H2X           -49.8557209579        0.7184595343       13.4098833455  MEMB      138             0.0000000000
     15654       138  POPE      H2Y           -51.4751437848        0.0184919363       13.3293602074  MEMB      138             0.0000000000
     15655       138  POPE      C23           -55.4956358117       -2.6184000954       13.9103203256  MEMB      138             0.0000000000
     15656       138  POPE      H3R           -56.2652424863       -1.8172698129       13.8955825623  MEMB      138             0.0000000000
     15657       138  POPE      H3S           -56.1723946861       -3.4981209988       13.9594072709  MEMB      138             0.0000000000
     15658       138  POPE      C24           -54.6131238329       -2.7351303182       12.6499108444  MEMB      138             0.0000000000
     15659       138  POPE      H4R           -54.1364755321       -3.7324644102       12.7615002354  MEMB      138             0.0000000000
     15660       138  POPE      H4S           -53.8687019543       -1.9151086759       12.5620386444  MEMB      138             0.0000000000
     15661       138  POPE      C25           -55.4748970718       -2.6323878221       11.3164655594  MEMB      138             0.0000000000
     15662       138  POPE      H5R           -55.8302712331       -1.5838964415       11.2232135813  MEMB      138             0.0000000000
     15663       138  POPE      H5S           -56.3703120780       -3.2883569744       11.2689548512  MEMB      138             0.0000000000
     15664       138  POPE      C26           -54.7366715405       -2.8668140266       10.0300845523  MEMB      138             0.0000000000
     15665       138  POPE      H6R           -54.3577101694       -3.9051677413       10.1420257005  MEMB      138             0.0000000000
     15666       138  POPE      H6S           -53.9452955718       -2.0870432597       10.0284854592  MEMB      138             0.0000000000
     15667       138  POPE      C27           -55.6767042341       -2.6201858563        8.8279336666  MEMB      138             0.0000000000
     15668       138  POPE      H7R           -55.6189468430       -1.5800952584        8.4416737618  MEMB      138             0.0000000000
     15669       138  POPE      H7S           -56.7714557103       -2.7171780521        8.9905160755  MEMB      138             0.0000000000
     15670       138  POPE      C28           -55.2645406632       -3.4627903508        7.7037123204  MEMB      138             0.0000000000
     15671       138  POPE      H8R           -54.1629428685       -3.3522561136        7.7963693766  MEMB      138             0.0000000000
     15672       138  POPE      H8S           -55.7192719543       -2.8821098994        6.8728394030  MEMB      138             0.0000000000
     15673       138  POPE      C29           -55.6744031827       -4.8578856103        7.4646891297  MEMB      138             0.0000000000
     15674       138  POPE      H91           -56.7429100322       -5.0967150959        7.5707709130  MEMB      138             0.0000000000
     15675       138  POPE      C210          -54.9500721498       -5.8796271724        7.0906100680  MEMB      138             0.0000000000
     15676       138  POPE      H101          -55.4732913740       -6.8465533288        7.1266009204  MEMB      138             0.0000000000
     15677       138  POPE      C211          -53.5389813304       -5.9547478966        6.7809189198  MEMB      138             0.0000000000
     15678       138  POPE      H11R          -53.1908451414       -6.8468893433        7.3441298252  MEMB      138             0.0000000000
     15679       138  POPE      H11S          -53.0174310149       -5.0732656701        7.2113792410  MEMB      138             0.0000000000
     15680       138  POPE      C212          -53.1583879615       -6.0403599180        5.2456482305  MEMB      138             0.0000000000
     15681       138  POPE      H12R          -53.6855628955       -6.9369750711        4.8551502459  MEMB      138             0.0000000000
     15682       138  POPE      H12S          -52.0864484607       -6.3323614489        5.2470023434  MEMB      138             0.0000000000
     15683       138  POPE      C213          -53.4234864262       -4.8116142434        4.4035987418  MEMB      138             0.0000000000
     15684       138  POPE      H13R          -53.0886980859       -3.9171883816        4.9712611035  MEMB      138             0.0000000000
     15685       138  POPE      H13S          -54.4997121510       -4.7023460028        4.1503804771  MEMB      138             0.0000000000
     15686       138  POPE      C214          -52.5356128917       -4.7952947075        3.0650521752  MEMB      138             0.0000000000
     15687       138  POPE      H14R          -52.7430044104       -5.7725831980        2.5790303851  MEMB      138             0.0000000000
     15688       138  POPE      H14S          -51.4553962789       -4.8918666338        3.3061472529  MEMB      138             0.0000000000
     15689       138  POPE      C215          -52.7684487919       -3.4911493722        2.2535685590  MEMB      138             0.0000000000
     15690       138  POPE      H15R          -52.5190356574       -2.6306762271        2.9106069838  MEMB      138             0.0000000000
     15691       138  POPE      H15S          -53.8709534415       -3.4617964401        2.1196161499  MEMB      138             0.0000000000
     15692       138  POPE      C216          -52.0738826266       -3.3694916593        0.8902919274  MEMB      138             0.0000000000
     15693       138  POPE      H16R          -50.9778583566       -3.4876553747        1.0284559876  MEMB      138             0.0000000000
     15694       138  POPE      H16S          -52.1637853787       -2.3822903981        0.3886233253  MEMB      138             0.0000000000
     15695       138  POPE      C217          -52.5016850525       -4.3767303560       -0.1758272828  MEMB      138             0.0000000000
     15696       138  POPE      H17R          -53.6030561961       -4.3119726192       -0.3066287947  MEMB      138             0.0000000000
     15697       138  POPE      H17S          -52.3159898911       -5.3858199764        0.2502903249  MEMB      138             0.0000000000
     15698       138  POPE      C218          -51.7325498102       -4.1173962980       -1.4559556819  MEMB      138             0.0000000000
     15699       138  POPE      H18R          -51.8901565141       -3.1049915866       -1.8855112358  MEMB      138             0.0000000000
     15700       138  POPE      H18S          -51.9532255009       -4.8226486838       -2.2855591191  MEMB      138             0.0000000000
     15701       138  POPE      H18T          -50.6475136450       -4.1837747517       -1.2265841748  MEMB      138             0.0000000000
     15702       138  POPE      C33           -49.7462976853       -1.3388285366       13.0032547902  MEMB      138             0.0000000000
     15703       138  POPE      H3X           -50.1412166124       -2.2830648186       13.4354331457  MEMB      138             0.0000000000
     15704       138  POPE      H3Y           -48.6679054425       -1.3400791826       13.2704431021  MEMB      138             0.0000000000
     15705       138  POPE      C34           -49.9467295313       -1.3089420229       11.4515800181  MEMB      138             0.0000000000
     15706       138  POPE      H4X           -49.3228700891       -0.5392375483       10.9489118272  MEMB      138             0.0000000000
     15707       138  POPE      H4Y           -51.0341301740       -1.1345359724       11.3050764604  MEMB      138             0.0000000000
     15708       138  POPE      C35           -49.5478694380       -2.6343133492       10.7719796240  MEMB      138             0.0000000000
     15709       138  POPE      H5X           -50.1864312100       -3.4590810660       11.1544955815  MEMB      138             0.0000000000
     15710       138  POPE      H5Y           -48.4507178341       -2.7909537746       10.8497165732  MEMB      138             0.0000000000
     15711       138  POPE      C36           -49.8526839170       -2.5356568920        9.2618639102  MEMB      138             0.0000000000
     15712       138  POPE      H6X           -49.6075472788       -1.4972188455        8.9522267593  MEMB      138             0.0000000000
     15713       138  POPE      H6Y           -50.9252353588       -2.7724215614        9.0948400255  MEMB      138             0.0000000000
     15714       138  POPE      C37           -49.1221937595       -3.5108221841        8.3559122840  MEMB      138             0.0000000000
     15715       138  POPE      H7X           -49.2888279068       -4.5292615455        8.7674159156  MEMB      138             0.0000000000
     15716       138  POPE      H7Y           -48.0597017169       -3.2944437629        8.5980118386  MEMB      138             0.0000000000
     15717       138  POPE      C38           -49.3522937115       -3.4794249078        6.8955866762  MEMB      138             0.0000000000
     15718       138  POPE      H8X           -49.1601266774       -2.4048489235        6.6889975825  MEMB      138             0.0000000000
     15719       138  POPE      H8Y           -50.3698627771       -3.8647764986        6.6711359217  MEMB      138             0.0000000000
     15720       138  POPE      C39           -48.1982906952       -4.0807297006        5.9998012529  MEMB      138             0.0000000000
     15721       138  POPE      H9X           -48.2101771027       -5.1913090856        5.9716375520  MEMB      138             0.0000000000
     15722       138  POPE      H9Y           -47.2579120058       -3.6550239373        6.4106348439  MEMB      138             0.0000000000
     15723       138  POPE      C310          -48.3160978590       -3.7593734817        4.5268425449  MEMB      138             0.0000000000
     15724       138  POPE      H10X          -48.2824148979       -2.6555973631        4.4049213231  MEMB      138             0.0000000000
     15725       138  POPE      H10Y          -49.3058794292       -4.1475543212        4.2044006598  MEMB      138             0.0000000000
     15726       138  POPE      C311          -47.2025508367       -4.3452335278        3.5794910140  MEMB      138             0.0000000000
     15727       138  POPE      H11X          -46.4112716919       -4.6259665867        4.3070819292  MEMB      138             0.0000000000
     15728       138  POPE      H11Y          -46.9123858521       -3.6303933851        2.7800358963  MEMB      138             0.0000000000
     15729       138  POPE      C312          -47.5886278250       -5.4870086052        2.6392208969  MEMB      138             0.0000000000
     15730       138  POPE      H12X          -48.0185829530       -6.2947526217        3.2693073573  MEMB      138             0.0000000000
     15731       138  POPE      H12Y          -46.6697642972       -5.9332249689        2.2022971062  MEMB      138             0.0000000000
     15732       138  POPE      C313          -48.5344981473       -5.1798801884        1.4252304098  MEMB      138             0.0000000000
     15733       138  POPE      H13X          -48.1524500573       -4.2398961984        0.9726910950  MEMB      138             0.0000000000
     15734       138  POPE      H13Y          -49.5681272322       -5.1258642743        1.8289792099  MEMB      138             0.0000000000
     15735       138  POPE      C314          -48.5686146970       -6.2939748565        0.3295375882  MEMB      138             0.0000000000
     15736       138  POPE      H14X          -47.6252019949       -6.3861068758       -0.2499491377  MEMB      138             0.0000000000
     15737       138  POPE      H14Y          -49.3118091154       -6.0174461735       -0.4486096620  MEMB      138             0.0000000000
     15738       138  POPE      C315          -49.0400397915       -7.6094238178        0.9275968647  MEMB      138             0.0000000000
     15739       138  POPE      H15X          -49.8446688515       -7.3961235763        1.6633915372  MEMB      138             0.0000000000
     15740       138  POPE      H15Y          -48.1115343854       -8.1102640885        1.2759612509  MEMB      138             0.0000000000
     15741       138  POPE      C316          -49.7014956337       -8.5019527100       -0.1774047425  MEMB      138             0.0000000000
     15742       138  POPE      H16X          -48.9934318157       -8.5216284300       -1.0333117525  MEMB      138             0.0000000000
     15743       138  POPE      H16Y          -50.6511240618       -7.9790710886       -0.4205533495  MEMB      138             0.0000000000
     15744       138  POPE      H16Z          -49.8850217516       -9.4816336018        0.3133761249  MEMB      138             0.0000000000
     15745       139  POPE      N              22.9421031040      -50.3522415638       19.0107904374  MEMB      139             0.0000000000
     15746       139  POPE      HN1            23.9385182349      -50.5462846527       19.2368521048  MEMB      139             0.0000000000
     15747       139  POPE      HN2            22.5171356067      -50.9853515583       18.3035604029  MEMB      139             0.0000000000
     15748       139  POPE      HN3            22.9832524482      -49.4355690451       18.5212821836  MEMB      139             0.0000000000
     15749       139  POPE      C12            22.1429749341      -50.2090281127       20.3318663802  MEMB      139             0.0000000000
     15750       139  POPE      H12A           22.8443084714      -49.6858238924       21.0164901227  MEMB      139             0.0000000000
     15751       139  POPE      H12B           21.7508808452      -51.1901339923       20.6753985021  MEMB      139             0.0000000000
     15752       139  POPE      C11            20.9419201667      -49.1897578024       20.0993238737  MEMB      139             0.0000000000
     15753       139  POPE      H11A           21.4506094098      -48.3701028963       19.5482141474  MEMB      139             0.0000000000
     15754       139  POPE      H11B           20.4970959452      -48.9006510325       21.0754743560  MEMB      139             0.0000000000
     15755       139  POPE      P              18.8282917144      -48.7270179659       18.5542940859  MEMB      139             0.0000000000
     15756       139  POPE      O13            18.9851111417      -47.2871753505       19.0057495603  MEMB      139             0.0000000000
     15757       139  POPE      O14            17.4582271085      -49.3574890523       18.5057522337  MEMB      139             0.0000000000
     15758       139  POPE      O11            19.5250126283      -48.8999923407       17.1538642541  MEMB      139             0.0000000000
     15759       139  POPE      O12            19.8228079998      -49.7233498120       19.3383591354  MEMB      139             0.0000000000
     15760       139  POPE      C1             19.4594797632      -50.1161698815       16.4305302277  MEMB      139             0.0000000000
     15761       139  POPE      HA             18.6405937268      -50.8118379826       16.7130058841  MEMB      139             0.0000000000
     15762       139  POPE      HB             20.3886955752      -50.7229948266       16.3791257572  MEMB      139             0.0000000000
     15763       139  POPE      C2             19.2983189456      -49.8537512111       14.9250023418  MEMB      139             0.0000000000
     15764       139  POPE      HS             18.9837040714      -50.7885926236       14.4137195358  MEMB      139             0.0000000000
     15765       139  POPE      O21            20.5105822462      -49.2745139622       14.3820289607  MEMB      139             0.0000000000
     15766       139  POPE      C21            21.1330707233      -49.9884358246       13.4076338251  MEMB      139             0.0000000000
     15767       139  POPE      O22            20.8714400849      -51.1572578886       13.0591600406  MEMB      139             0.0000000000
     15768       139  POPE      C22            22.3494376237      -49.3660916772       12.8270048634  MEMB      139             0.0000000000
     15769       139  POPE      H2R            23.1141395464      -49.3664126463       13.6329528164  MEMB      139             0.0000000000
     15770       139  POPE      H2S            21.9820172827      -48.3637286840       12.5194473998  MEMB      139             0.0000000000
     15771       139  POPE      C3             18.0360332187      -48.8583739479       14.6705579971  MEMB      139             0.0000000000
     15772       139  POPE      HX             18.1571292774      -47.9836398198       15.3447219321  MEMB      139             0.0000000000
     15773       139  POPE      HY             17.0228999743      -49.2943323548       14.8040587244  MEMB      139             0.0000000000
     15774       139  POPE      O31            18.0691152140      -48.3562176133       13.3015177821  MEMB      139             0.0000000000
     15775       139  POPE      C31            18.8555822584      -47.2671093509       13.0272045605  MEMB      139             0.0000000000
     15776       139  POPE      O32            19.5801587671      -46.6281913128       13.7722483666  MEMB      139             0.0000000000
     15777       139  POPE      C32            18.7477621213      -46.9917219692       11.6025229783  MEMB      139             0.0000000000
     15778       139  POPE      H2X            17.9747757921      -47.6276341509       11.1204141173  MEMB      139             0.0000000000
     15779       139  POPE      H2Y            19.6941330354      -47.3634305407       11.1547106017  MEMB      139             0.0000000000
     15780       139  POPE      C23            22.8393558157      -50.0193461604       11.5234796876  MEMB      139             0.0000000000
     15781       139  POPE      H3R            21.8746159525      -50.1099097734       10.9799762418  MEMB      139             0.0000000000
     15782       139  POPE      H3S            23.2473465198      -51.0403636511       11.6828157063  MEMB      139             0.0000000000
     15783       139  POPE      C24            23.8918369064      -49.2478651163       10.7211957855  MEMB      139             0.0000000000
     15784       139  POPE      H4R            24.7778047812      -49.0493760019       11.3614963753  MEMB      139             0.0000000000
     15785       139  POPE      H4S            23.5061135125      -48.2207620338       10.5462741096  MEMB      139             0.0000000000
     15786       139  POPE      C25            24.1662427619      -49.9113424057        9.3193858601  MEMB      139             0.0000000000
     15787       139  POPE      H5R            24.4247587882      -50.9916268713        9.3411954449  MEMB      139             0.0000000000
     15788       139  POPE      H5S            25.0427393332      -49.3242494014        8.9709656355  MEMB      139             0.0000000000
     15789       139  POPE      C26            23.0439704651      -49.7766709895        8.3311104404  MEMB      139             0.0000000000
     15790       139  POPE      H6R            22.3085656870      -50.5666552302        8.5945987738  MEMB      139             0.0000000000
     15791       139  POPE      H6S            23.5009958788      -50.0326004552        7.3513409372  MEMB      139             0.0000000000
     15792       139  POPE      C27            22.3336600359      -48.4116287656        8.2620329253  MEMB      139             0.0000000000
     15793       139  POPE      H7R            23.1124107581      -47.6238779615        8.1764928386  MEMB      139             0.0000000000
     15794       139  POPE      H7S            21.7249823301      -48.1193662514        9.1443113365  MEMB      139             0.0000000000
     15795       139  POPE      C28            21.3895032508      -48.2899740551        7.0240393826  MEMB      139             0.0000000000
     15796       139  POPE      H8R            22.0235287715      -48.4208681611        6.1211554984  MEMB      139             0.0000000000
     15797       139  POPE      H8S            21.0315573428      -47.2382160489        7.0249042744  MEMB      139             0.0000000000
     15798       139  POPE      C29            20.1255096722      -49.1159552257        6.9227218079  MEMB      139             0.0000000000
     15799       139  POPE      H91            19.4419706956      -49.0389419179        7.7811173262  MEMB      139             0.0000000000
     15800       139  POPE      C210           19.6469964818      -49.9205327998        5.9672223563  MEMB      139             0.0000000000
     15801       139  POPE      H101           18.5785799023      -50.1610108328        6.0704507083  MEMB      139             0.0000000000
     15802       139  POPE      C211           20.3170074423      -50.2015661196        4.6343865778  MEMB      139             0.0000000000
     15803       139  POPE      H11R           19.8145087104      -51.0780175402        4.1721652143  MEMB      139             0.0000000000
     15804       139  POPE      H11S           21.3934366929      -50.4143261647        4.8086110352  MEMB      139             0.0000000000
     15805       139  POPE      C212           20.1842794921      -48.9080653521        3.7712216981  MEMB      139             0.0000000000
     15806       139  POPE      H12R           20.6496006676      -48.0274008384        4.2633879149  MEMB      139             0.0000000000
     15807       139  POPE      H12S           19.0925760587      -48.7031558668        3.7939516050  MEMB      139             0.0000000000
     15808       139  POPE      C213           20.6457261503      -49.0074027887        2.2961086092  MEMB      139             0.0000000000
     15809       139  POPE      H13R           20.2669360556      -48.1400542030        1.7142608639  MEMB      139             0.0000000000
     15810       139  POPE      H13S           20.2868005750      -49.9520958220        1.8345356667  MEMB      139             0.0000000000
     15811       139  POPE      C214           22.2122571972      -48.9697528608        2.1942928345  MEMB      139             0.0000000000
     15812       139  POPE      H14R           22.4509022468      -49.8258230374        1.5275738889  MEMB      139             0.0000000000
     15813       139  POPE      H14S           22.4868577660      -49.1012834634        3.2627568585  MEMB      139             0.0000000000
     15814       139  POPE      C215           22.7044071081      -47.6111500657        1.6031514157  MEMB      139             0.0000000000
     15815       139  POPE      H15R           22.2017312570      -47.3570323451        0.6455166466  MEMB      139             0.0000000000
     15816       139  POPE      H15S           23.7845869631      -47.7034560821        1.3602268256  MEMB      139             0.0000000000
     15817       139  POPE      C216           22.5030489230      -46.3900161127        2.3968105855  MEMB      139             0.0000000000
     15818       139  POPE      H16R           22.8781683891      -46.5417764728        3.4314971018  MEMB      139             0.0000000000
     15819       139  POPE      H16S           21.4174418767      -46.1633149981        2.3305915779  MEMB      139             0.0000000000
     15820       139  POPE      C217           23.2534830760      -45.1631871717        1.8797826272  MEMB      139             0.0000000000
     15821       139  POPE      H17R           22.6998111963      -44.2249460587        2.0976634116  MEMB      139             0.0000000000
     15822       139  POPE      H17S           23.3259285409      -45.2021573197        0.7718326488  MEMB      139             0.0000000000
     15823       139  POPE      C218           24.6561213946      -45.0461028674        2.4267444936  MEMB      139             0.0000000000
     15824       139  POPE      H18R           24.6839735311      -44.9323854360        3.5315586499  MEMB      139             0.0000000000
     15825       139  POPE      H18S           25.1158235395      -44.0941812462        2.0849264720  MEMB      139             0.0000000000
     15826       139  POPE      H18T           25.1883088773      -45.9678989524        2.1083283128  MEMB      139             0.0000000000
     15827       139  POPE      C33            18.5480920943      -45.5859076649       11.2671722823  MEMB      139             0.0000000000
     15828       139  POPE      H3X            19.4064622612      -44.8927642282       11.3978392768  MEMB      139             0.0000000000
     15829       139  POPE      H3Y            17.7290121541      -45.1405711653       11.8714110702  MEMB      139             0.0000000000
     15830       139  POPE      C34            18.0830567926      -45.5033097920        9.8252747499  MEMB      139             0.0000000000
     15831       139  POPE      H4X            17.1295297832      -45.9990675917        9.5436161790  MEMB      139             0.0000000000
     15832       139  POPE      H4Y            18.9063076752      -46.0216144161        9.2886750889  MEMB      139             0.0000000000
     15833       139  POPE      C35            18.0563481061      -44.0175502072        9.3428265210  MEMB      139             0.0000000000
     15834       139  POPE      H5X            19.0552802105      -43.5480389468        9.4693764483  MEMB      139             0.0000000000
     15835       139  POPE      H5Y            17.3617271170      -43.4369086014        9.9867816716  MEMB      139             0.0000000000
     15836       139  POPE      C36            17.5503869320      -43.7619816717        7.9436651969  MEMB      139             0.0000000000
     15837       139  POPE      H6X            17.5023076248      -42.6700773781        7.7442799384  MEMB      139             0.0000000000
     15838       139  POPE      H6Y            16.5266150006      -44.1828835728        7.8485135474  MEMB      139             0.0000000000
     15839       139  POPE      C37            18.5068931842      -44.2063638079        6.8265009046  MEMB      139             0.0000000000
     15840       139  POPE      H7X            18.8903462163      -45.2329884129        7.0090569377  MEMB      139             0.0000000000
     15841       139  POPE      H7Y            19.3911992293      -43.5433148541        6.7138507621  MEMB      139             0.0000000000
     15842       139  POPE      C38            17.6705575035      -44.2176630263        5.5291350918  MEMB      139             0.0000000000
     15843       139  POPE      H8X            17.0696858027      -43.2835172906        5.5037283068  MEMB      139             0.0000000000
     15844       139  POPE      H8Y            16.9410864110      -45.0490618015        5.6338680354  MEMB      139             0.0000000000
     15845       139  POPE      C39            18.5079131384      -44.3432374780        4.2617343471  MEMB      139             0.0000000000
     15846       139  POPE      H9X            18.0129700344      -44.9196517336        3.4511181815  MEMB      139             0.0000000000
     15847       139  POPE      H9Y            19.3418069967      -45.0244711495        4.5353448079  MEMB      139             0.0000000000
     15848       139  POPE      C310           19.0462778211      -42.9459448075        3.7457987289  MEMB      139             0.0000000000
     15849       139  POPE      H10X           19.5996598694      -42.5041616340        4.6019048263  MEMB      139             0.0000000000
     15850       139  POPE      H10Y           18.3189999731      -42.1213607310        3.5862721985  MEMB      139             0.0000000000
     15851       139  POPE      C311           19.7939547715      -42.9727771384        2.4175099048  MEMB      139             0.0000000000
     15852       139  POPE      H11X           20.8649070566      -43.2486395406        2.5237294881  MEMB      139             0.0000000000
     15853       139  POPE      H11Y           19.9543381378      -41.9263477183        2.0804898054  MEMB      139             0.0000000000
     15854       139  POPE      C312           19.0585271794      -43.6157564504        1.2436782867  MEMB      139             0.0000000000
     15855       139  POPE      H12X           18.0867248078      -43.0818842540        1.1736668501  MEMB      139             0.0000000000
     15856       139  POPE      H12Y           18.8710162006      -44.7104854275        1.2166667165  MEMB      139             0.0000000000
     15857       139  POPE      C313           19.7080780901      -43.3425186013       -0.1253733394  MEMB      139             0.0000000000
     15858       139  POPE      H13X           20.7921680544      -43.5798702167       -0.0730833059  MEMB      139             0.0000000000
     15859       139  POPE      H13Y           19.4048406589      -42.3391512274       -0.4936415341  MEMB      139             0.0000000000
     15860       139  POPE      C314           19.1000268465      -44.1784484596       -1.3722003188  MEMB      139             0.0000000000
     15861       139  POPE      H14X           19.5014754195      -43.6596987516       -2.2688951586  MEMB      139             0.0000000000
     15862       139  POPE      H14Y           17.9929387911      -44.0935126755       -1.4104525438  MEMB      139             0.0000000000
     15863       139  POPE      C315           19.6319134098      -45.6652390501       -1.3437082781  MEMB      139             0.0000000000
     15864       139  POPE      H15X           19.6978366381      -46.0140994615       -0.2909620780  MEMB      139             0.0000000000
     15865       139  POPE      H15Y           20.6644796697      -45.5274966404       -1.7299135133  MEMB      139             0.0000000000
     15866       139  POPE      C316           18.8962064196      -46.6874292079       -2.2352301246  MEMB      139             0.0000000000
     15867       139  POPE      H16X           17.8356094233      -46.8442292197       -1.9439061684  MEMB      139             0.0000000000
     15868       139  POPE      H16Y           19.4902341897      -47.5858404148       -1.9626333378  MEMB      139             0.0000000000
     15869       139  POPE      H16Z           18.8850854968      -46.4141190080       -3.3120290369  MEMB      139             0.0000000000
     15870       140  POPE      N              -4.4127864750      -51.8938318576       21.0388712803  MEMB      140             0.0000000000
     15871       140  POPE      HN1            -4.9277384596      -51.0732422046       21.4171001669  MEMB      140             0.0000000000
     15872       140  POPE      HN2            -4.9938807968      -52.7379077753       21.2162556662  MEMB      140             0.0000000000
     15873       140  POPE      HN3            -3.4982440230      -52.0181758602       21.5181945914  MEMB      140             0.0000000000
     15874       140  POPE      C12            -4.3899190073      -51.8025132794       19.5358966089  MEMB      140             0.0000000000
     15875       140  POPE      H12A           -4.0405231815      -50.8446566568       19.0945869532  MEMB      140             0.0000000000
     15876       140  POPE      H12B           -5.4499120935      -51.9447782963       19.2350709959  MEMB      140             0.0000000000
     15877       140  POPE      C11            -3.3683348588      -52.7878725327       18.9511596589  MEMB      140             0.0000000000
     15878       140  POPE      H11A           -3.5889850478      -52.8200250277       17.8627660060  MEMB      140             0.0000000000
     15879       140  POPE      H11B           -3.5666148738      -53.7940091821       19.3785880596  MEMB      140             0.0000000000
     15880       140  POPE      P              -0.8397080196      -53.1626240021       18.5258119702  MEMB      140             0.0000000000
     15881       140  POPE      O13            -1.1253491281      -54.6065252220       18.6773210531  MEMB      140             0.0000000000
     15882       140  POPE      O14             0.4278904318      -52.7215014764       19.1300606909  MEMB      140             0.0000000000
     15883       140  POPE      O11            -0.8926105672      -52.7245386475       16.9428395894  MEMB      140             0.0000000000
     15884       140  POPE      O12            -2.0452508603      -52.3766305807       19.1980391486  MEMB      140             0.0000000000
     15885       140  POPE      C1             -0.8286053603      -51.3739223713       16.4743689223  MEMB      140             0.0000000000
     15886       140  POPE      HA              0.1308458360      -50.8297555484       16.6072490402  MEMB      140             0.0000000000
     15887       140  POPE      HB             -1.6401163971      -50.7694967345       16.9331066710  MEMB      140             0.0000000000
     15888       140  POPE      C2             -1.0241694133      -51.4436880773       14.8954213281  MEMB      140             0.0000000000
     15889       140  POPE      HS             -1.0532010104      -50.4167514382       14.4724806156  MEMB      140             0.0000000000
     15890       140  POPE      O21            -2.2567350766      -52.1821657515       14.7050078508  MEMB      140             0.0000000000
     15891       140  POPE      C21            -3.3316258359      -51.4884820703       14.9764959948  MEMB      140             0.0000000000
     15892       140  POPE      O22            -3.4703806696      -50.3730436483       15.4133882887  MEMB      140             0.0000000000
     15893       140  POPE      C22            -4.5977442850      -52.2984143060       14.6590774785  MEMB      140             0.0000000000
     15894       140  POPE      H2R            -5.2297831399      -52.4711369708       15.5563034173  MEMB      140             0.0000000000
     15895       140  POPE      H2S            -4.2827214943      -53.3183029105       14.3510042564  MEMB      140             0.0000000000
     15896       140  POPE      C3              0.0207576512      -52.3121895371       14.2254560203  MEMB      140             0.0000000000
     15897       140  POPE      HX              0.6740228265      -52.6989950465       15.0365953821  MEMB      140             0.0000000000
     15898       140  POPE      HY              0.6951515791      -51.6456608166       13.6464454644  MEMB      140             0.0000000000
     15899       140  POPE      O31            -0.6193601344      -53.4455620491       13.5322437496  MEMB      140             0.0000000000
     15900       140  POPE      C31            -1.0280719032      -53.3337183404       12.3092142338  MEMB      140             0.0000000000
     15901       140  POPE      O32            -1.3347935577      -52.3196902035       11.7716021014  MEMB      140             0.0000000000
     15902       140  POPE      C32            -1.0243873187      -54.7463318601       11.6865914653  MEMB      140             0.0000000000
     15903       140  POPE      H2X            -1.0429621424      -54.7669043935       10.5759370426  MEMB      140             0.0000000000
     15904       140  POPE      H2Y            -1.9331181940      -55.2126916726       12.1236706605  MEMB      140             0.0000000000
     15905       140  POPE      C23            -5.4558434790      -51.7353067347       13.5152265998  MEMB      140             0.0000000000
     15906       140  POPE      H3R            -5.7929589041      -50.6870646566       13.6630852040  MEMB      140             0.0000000000
     15907       140  POPE      H3S            -6.4069196545      -52.3005246889       13.4137211590  MEMB      140             0.0000000000
     15908       140  POPE      C24            -4.7620660600      -51.7693931258       12.1046446123  MEMB      140             0.0000000000
     15909       140  POPE      H4R            -3.7537072212      -51.3313083054       12.2646915965  MEMB      140             0.0000000000
     15910       140  POPE      H4S            -5.3208489852      -50.9701321021       11.5724189236  MEMB      140             0.0000000000
     15911       140  POPE      C25            -4.6278791195      -53.1052243887       11.4129727558  MEMB      140             0.0000000000
     15912       140  POPE      H5R            -5.6329381169      -53.5669938115       11.5175963726  MEMB      140             0.0000000000
     15913       140  POPE      H5S            -3.8733780874      -53.6623363175       12.0085194039  MEMB      140             0.0000000000
     15914       140  POPE      C26            -4.2795048009      -52.9656845695        9.9647848630  MEMB      140             0.0000000000
     15915       140  POPE      H6R            -3.2908214296      -52.4614661298        9.9138967081  MEMB      140             0.0000000000
     15916       140  POPE      H6S            -5.0490464772      -52.3020406832        9.5156713250  MEMB      140             0.0000000000
     15917       140  POPE      C27            -4.2811928070      -54.3253162119        9.2223804045  MEMB      140             0.0000000000
     15918       140  POPE      H7R            -5.3425528431      -54.6515326909        9.2600456811  MEMB      140             0.0000000000
     15919       140  POPE      H7S            -3.5810455906      -55.0206392555        9.7329097437  MEMB      140             0.0000000000
     15920       140  POPE      C28            -3.8415130368      -54.2256691631        7.7039322328  MEMB      140             0.0000000000
     15921       140  POPE      H8R            -4.3195940814      -53.3192275052        7.2748367431  MEMB      140             0.0000000000
     15922       140  POPE      H8S            -4.2324660328      -55.0872757577        7.1216001495  MEMB      140             0.0000000000
     15923       140  POPE      C29            -2.3680779737      -54.2166692592        7.8734454464  MEMB      140             0.0000000000
     15924       140  POPE      H91            -1.9137972964      -53.3465328795        8.3699251948  MEMB      140             0.0000000000
     15925       140  POPE      C210           -1.5029889464      -55.1462015549        7.5883277510  MEMB      140             0.0000000000
     15926       140  POPE      H101           -0.4393279401      -54.9275742847        7.7639049049  MEMB      140             0.0000000000
     15927       140  POPE      C211           -1.8610207582      -56.4783185703        6.9485337319  MEMB      140             0.0000000000
     15928       140  POPE      H11R           -2.7094730793      -57.0236685446        7.4144135057  MEMB      140             0.0000000000
     15929       140  POPE      H11S           -1.0267855678      -57.2054516576        7.0467681824  MEMB      140             0.0000000000
     15930       140  POPE      C212           -2.1837813723      -56.1946909658        5.4501967218  MEMB      140             0.0000000000
     15931       140  POPE      H12R           -1.2381517444      -55.9548906717        4.9185942197  MEMB      140             0.0000000000
     15932       140  POPE      H12S           -2.8610591849      -55.3140208669        5.4562068112  MEMB      140             0.0000000000
     15933       140  POPE      C213           -2.8610233220      -57.2529328401        4.7717443680  MEMB      140             0.0000000000
     15934       140  POPE      H13R           -3.7519435733      -57.5617067856        5.3593167185  MEMB      140             0.0000000000
     15935       140  POPE      H13S           -2.1700205750      -58.0953387362        4.5545148761  MEMB      140             0.0000000000
     15936       140  POPE      C214           -3.4148797878      -56.8543909349        3.4014132215  MEMB      140             0.0000000000
     15937       140  POPE      H14R           -4.1764841620      -56.0633307089        3.5702444938  MEMB      140             0.0000000000
     15938       140  POPE      H14S           -3.9388685329      -57.7140337221        2.9315509631  MEMB      140             0.0000000000
     15939       140  POPE      C215           -2.5079726468      -56.3508181541        2.2943739761  MEMB      140             0.0000000000
     15940       140  POPE      H15R           -1.9258973576      -55.4836950047        2.6733293089  MEMB      140             0.0000000000
     15941       140  POPE      H15S           -3.2036226666      -55.9788305014        1.5120584450  MEMB      140             0.0000000000
     15942       140  POPE      C216           -1.6643963682      -57.4291043757        1.7548821099  MEMB      140             0.0000000000
     15943       140  POPE      H16R           -2.2488839611      -58.1454504911        1.1388108519  MEMB      140             0.0000000000
     15944       140  POPE      H16S           -1.2028760638      -58.0557997192        2.5477070856  MEMB      140             0.0000000000
     15945       140  POPE      C217           -0.6578530877      -56.9204720406        0.7198561251  MEMB      140             0.0000000000
     15946       140  POPE      H17R            0.0709457323      -56.1632857956        1.0801926454  MEMB      140             0.0000000000
     15947       140  POPE      H17S           -1.2465901580      -56.3561772531       -0.0346515429  MEMB      140             0.0000000000
     15948       140  POPE      C218            0.1111722653      -58.0577538730       -0.0418705002  MEMB      140             0.0000000000
     15949       140  POPE      H18R            0.6279038592      -57.6435979909       -0.9339392091  MEMB      140             0.0000000000
     15950       140  POPE      H18S           -0.6077279613      -58.8395230246       -0.3679692571  MEMB      140             0.0000000000
     15951       140  POPE      H18T            0.9507355917      -58.4315593589        0.5824071777  MEMB      140             0.0000000000
     15952       140  POPE      C33             0.2066537200      -55.6170333890       12.0646435862  MEMB      140             0.0000000000
     15953       140  POPE      H3X            -0.0218889113      -56.6936130839       11.9127706407  MEMB      140             0.0000000000
     15954       140  POPE      H3Y             0.3885562090      -55.5461435337       13.1583561175  MEMB      140             0.0000000000
     15955       140  POPE      C34             1.4465358211      -55.4748149051       11.1008013687  MEMB      140             0.0000000000
     15956       140  POPE      H4X             1.0577890055      -55.9199398054       10.1600249771  MEMB      140             0.0000000000
     15957       140  POPE      H4Y             2.1561658555      -56.2763594929       11.3979085099  MEMB      140             0.0000000000
     15958       140  POPE      C35             1.9663708780      -54.1153751236       10.9211294051  MEMB      140             0.0000000000
     15959       140  POPE      H5X             2.2755255626      -53.6945231416       11.9017554800  MEMB      140             0.0000000000
     15960       140  POPE      H5Y             1.1473458585      -53.4346661704       10.6046574242  MEMB      140             0.0000000000
     15961       140  POPE      C36             3.1037431253      -53.9511938363        9.9383071430  MEMB      140             0.0000000000
     15962       140  POPE      H6X             3.6797317057      -54.8856162831       10.1098081676  MEMB      140             0.0000000000
     15963       140  POPE      H6Y             3.8202618356      -53.1168257438       10.0956338987  MEMB      140             0.0000000000
     15964       140  POPE      C37             2.6957559163      -53.9104213136        8.3904553647  MEMB      140             0.0000000000
     15965       140  POPE      H7X             2.2311798966      -54.8931493638        8.1608127720  MEMB      140             0.0000000000
     15966       140  POPE      H7Y             3.6538819666      -53.8810193197        7.8288047292  MEMB      140             0.0000000000
     15967       140  POPE      C38             1.7948552730      -52.7779992525        7.9654434369  MEMB      140             0.0000000000
     15968       140  POPE      H8X             1.9516106150      -51.8126234747        8.4925088885  MEMB      140             0.0000000000
     15969       140  POPE      H8Y             0.8085668942      -53.0616818359        8.3909784697  MEMB      140             0.0000000000
     15970       140  POPE      C39             1.8015174814      -52.4722136610        6.4573777251  MEMB      140             0.0000000000
     15971       140  POPE      H9X             1.6138463024      -53.3857321909        5.8535696088  MEMB      140             0.0000000000
     15972       140  POPE      H9Y             2.8551142620      -52.1337380807        6.3589428132  MEMB      140             0.0000000000
     15973       140  POPE      C310            0.9130590602      -51.2565137708        6.0324960363  MEMB      140             0.0000000000
     15974       140  POPE      H10X            1.1794996083      -50.3159291302        6.5603510105  MEMB      140             0.0000000000
     15975       140  POPE      H10Y           -0.1384344141      -51.5048542508        6.2913580027  MEMB      140             0.0000000000
     15976       140  POPE      C311            1.1126872291      -50.9202282651        4.5502513110  MEMB      140             0.0000000000
     15977       140  POPE      H11X            0.5456705393      -50.0207550937        4.2281313806  MEMB      140             0.0000000000
     15978       140  POPE      H11Y            0.5171021055      -51.6844911470        4.0066508258  MEMB      140             0.0000000000
     15979       140  POPE      C312            2.5726050931      -50.8150853252        3.9021673547  MEMB      140             0.0000000000
     15980       140  POPE      H12X            3.1708090655      -51.7062403486        4.1890746394  MEMB      140             0.0000000000
     15981       140  POPE      H12Y            3.0966728509      -49.8984339317        4.2477457527  MEMB      140             0.0000000000
     15982       140  POPE      C313            2.4334375245      -50.8427615830        2.3325365412  MEMB      140             0.0000000000
     15983       140  POPE      H13X            3.3471931051      -50.5023234953        1.8001147285  MEMB      140             0.0000000000
     15984       140  POPE      H13Y            1.5809774756      -50.1613694836        2.1243599196  MEMB      140             0.0000000000
     15985       140  POPE      C314            2.1452359775      -52.2201071806        1.7388725105  MEMB      140             0.0000000000
     15986       140  POPE      H14X            1.2847240490      -52.6871691722        2.2639360937  MEMB      140             0.0000000000
     15987       140  POPE      H14Y            3.1169228284      -52.6621609390        2.0466613411  MEMB      140             0.0000000000
     15988       140  POPE      C315            1.9544330023      -52.1509648300        0.2556196305  MEMB      140             0.0000000000
     15989       140  POPE      H15X            2.6673840157      -51.3994327620       -0.1459043484  MEMB      140             0.0000000000
     15990       140  POPE      H15Y            0.9083110379      -51.9423520053       -0.0549130134  MEMB      140             0.0000000000
     15991       140  POPE      C316            2.2956389668      -53.5274356276       -0.3727549018  MEMB      140             0.0000000000
     15992       140  POPE      H16X            1.6174696640      -54.3090168399        0.0316425473  MEMB      140             0.0000000000
     15993       140  POPE      H16Y            3.3644486512      -53.8292608070       -0.3432768543  MEMB      140             0.0000000000
     15994       140  POPE      H16Z            2.0598754130      -53.4059326228       -1.4516322225  MEMB      140             0.0000000000
     15995       141  POPE      N               6.4370711924       42.7631159212       17.9819515684  MEMB      141             0.0000000000
     15996       141  POPE      HN1             6.5489746528       43.7727540390       17.7589971574  MEMB      141             0.0000000000
     15997       141  POPE      HN2             7.3203188209       42.2391359078       17.8178838298  MEMB      141             0.0000000000
     15998       141  POPE      HN3             5.6092586828       42.4053239988       17.4639636994  MEMB      141             0.0000000000
     15999       141  POPE      C12             6.1282615393       42.5556762633       19.4059354874  MEMB      141             0.0000000000
     16000       141  POPE      H12A            6.9520754471       43.0198409799       19.9892044914  MEMB      141             0.0000000000
     16001       141  POPE      H12B            6.1484359473       41.4642607371       19.6126389583  MEMB      141             0.0000000000
     16002       141  POPE      C11             4.7448773971       43.1448519033       19.7647772463  MEMB      141             0.0000000000
     16003       141  POPE      H11A            4.6902938792       43.0840427691       20.8727681494  MEMB      141             0.0000000000
     16004       141  POPE      H11B            3.8975522121       42.5121693903       19.4240811132  MEMB      141             0.0000000000
     16005       141  POPE      P               3.0146612424       44.9935794850       19.0440803425  MEMB      141             0.0000000000
     16006       141  POPE      O13             2.9454618353       46.4635765765       18.6755133813  MEMB      141             0.0000000000
     16007       141  POPE      O14             2.2179839416       44.4833592324       20.1584848524  MEMB      141             0.0000000000
     16008       141  POPE      O11             2.5173023021       44.2330861782       17.6739573673  MEMB      141             0.0000000000
     16009       141  POPE      O12             4.5684494812       44.5186719960       19.2952997526  MEMB      141             0.0000000000
     16010       141  POPE      C1              3.3285477507       44.0538966847       16.5224308269  MEMB      141             0.0000000000
     16011       141  POPE      HA              4.3987911476       43.7717592648       16.6188598534  MEMB      141             0.0000000000
     16012       141  POPE      HB              3.2461211801       45.0181709712       15.9768100200  MEMB      141             0.0000000000
     16013       141  POPE      C2              2.7341765195       43.0505976880       15.6193574453  MEMB      141             0.0000000000
     16014       141  POPE      HS              3.4103519106       42.7986387241       14.7745944589  MEMB      141             0.0000000000
     16015       141  POPE      O21             1.4504466321       43.3865118501       15.0475645180  MEMB      141             0.0000000000
     16016       141  POPE      C21             1.2972627107       44.4196639302       14.2984787925  MEMB      141             0.0000000000
     16017       141  POPE      O22             2.1943934775       45.1740640240       13.9958854193  MEMB      141             0.0000000000
     16018       141  POPE      C22            -0.1309078595       44.5800229305       13.8993090056  MEMB      141             0.0000000000
     16019       141  POPE      H2R            -0.5647442011       45.1575701231       14.7434334051  MEMB      141             0.0000000000
     16020       141  POPE      H2S            -0.5752440710       43.5946245413       13.6426449902  MEMB      141             0.0000000000
     16021       141  POPE      C3              2.5627430294       41.7018379056       16.2609843042  MEMB      141             0.0000000000
     16022       141  POPE      HX              2.0491936120       41.8890697985       17.2282133695  MEMB      141             0.0000000000
     16023       141  POPE      HY              3.5223523165       41.1782021845       16.4591674055  MEMB      141             0.0000000000
     16024       141  POPE      O31             1.8483287865       40.7453170562       15.4170093858  MEMB      141             0.0000000000
     16025       141  POPE      C31             0.4903559450       40.8188263913       15.4622942279  MEMB      141             0.0000000000
     16026       141  POPE      O32            -0.1398802084       41.4325473780       16.3002166833  MEMB      141             0.0000000000
     16027       141  POPE      C32            -0.2019208035       39.9379814780       14.4607975890  MEMB      141             0.0000000000
     16028       141  POPE      H2X            -1.2614614340       39.8144046530       14.7713179025  MEMB      141             0.0000000000
     16029       141  POPE      H2Y             0.2482086598       38.9222530422       14.4612040611  MEMB      141             0.0000000000
     16030       141  POPE      C23            -0.2268379617       45.4556156489       12.6931694051  MEMB      141             0.0000000000
     16031       141  POPE      H3R             0.2187266769       46.4516435135       12.9022661701  MEMB      141             0.0000000000
     16032       141  POPE      H3S            -1.3099409650       45.5877976660       12.4840364324  MEMB      141             0.0000000000
     16033       141  POPE      C24             0.3511288317       44.9529297431       11.3796526285  MEMB      141             0.0000000000
     16034       141  POPE      H4R            -0.1045052558       43.9649160647       11.1548246037  MEMB      141             0.0000000000
     16035       141  POPE      H4S             1.3897690039       44.6091335395       11.5729179460  MEMB      141             0.0000000000
     16036       141  POPE      C25             0.4172831259       46.0122316260       10.1939571859  MEMB      141             0.0000000000
     16037       141  POPE      H5R             1.1153210279       46.8410077658       10.4393012795  MEMB      141             0.0000000000
     16038       141  POPE      H5S            -0.6105628129       46.4260658791       10.1127504452  MEMB      141             0.0000000000
     16039       141  POPE      C26             0.8604911548       45.3807229124        8.8774207525  MEMB      141             0.0000000000
     16040       141  POPE      H6R             1.7058819967       44.7391283009        9.2060422567  MEMB      141             0.0000000000
     16041       141  POPE      H6S             1.2564529796       46.1387823202        8.1682799626  MEMB      141             0.0000000000
     16042       141  POPE      C27            -0.2409123730       44.6024083908        8.0680829771  MEMB      141             0.0000000000
     16043       141  POPE      H7R            -0.9533606748       45.3892372250        7.7400000089  MEMB      141             0.0000000000
     16044       141  POPE      H7S            -0.8215687072       43.9773803075        8.7797700809  MEMB      141             0.0000000000
     16045       141  POPE      C28             0.3428255050       43.8357213361        6.8785721699  MEMB      141             0.0000000000
     16046       141  POPE      H8R             1.1933018652       43.2149992183        7.2331353306  MEMB      141             0.0000000000
     16047       141  POPE      H8S             0.6250215587       44.6313526238        6.1563133951  MEMB      141             0.0000000000
     16048       141  POPE      C29            -0.7002877043       43.0549118171        6.1308539165  MEMB      141             0.0000000000
     16049       141  POPE      H91            -1.2451917016       42.3798031623        6.8070994837  MEMB      141             0.0000000000
     16050       141  POPE      C210           -0.9867706418       42.9979558463        4.8263639069  MEMB      141             0.0000000000
     16051       141  POPE      H101           -1.8912358233       42.4296237638        4.5637964568  MEMB      141             0.0000000000
     16052       141  POPE      C211           -0.3644699736       43.7782944648        3.7156306965  MEMB      141             0.0000000000
     16053       141  POPE      H11R           -0.2470979037       44.8083670021        4.1149990044  MEMB      141             0.0000000000
     16054       141  POPE      H11S           -1.2265128711       43.8068069586        3.0153518094  MEMB      141             0.0000000000
     16055       141  POPE      C212            0.9603168926       43.2474929025        3.0206356429  MEMB      141             0.0000000000
     16056       141  POPE      H12R            1.7416638872       43.5227572425        3.7609383635  MEMB      141             0.0000000000
     16057       141  POPE      H12S            1.0276370105       43.8528377193        2.0914716177  MEMB      141             0.0000000000
     16058       141  POPE      C213            1.1368163099       41.7469777373        2.9678543400  MEMB      141             0.0000000000
     16059       141  POPE      H13R            0.1398194727       41.2799778827        2.8187567718  MEMB      141             0.0000000000
     16060       141  POPE      H13S            1.5059500286       41.4036299123        3.9578910889  MEMB      141             0.0000000000
     16061       141  POPE      C214            1.9413555373       41.1801893110        1.8043100944  MEMB      141             0.0000000000
     16062       141  POPE      H14R            2.3184144314       40.2035506332        2.1762297414  MEMB      141             0.0000000000
     16063       141  POPE      H14S            2.7818284237       41.8704071349        1.5773177874  MEMB      141             0.0000000000
     16064       141  POPE      C215            1.2187931505       41.0178846498        0.4435378515  MEMB      141             0.0000000000
     16065       141  POPE      H15R            0.9773522461       42.0665477031        0.1672536242  MEMB      141             0.0000000000
     16066       141  POPE      H15S            0.3134911255       40.4050034029        0.6413402965  MEMB      141             0.0000000000
     16067       141  POPE      C216            2.0128227565       40.1368440409       -0.5530098545  MEMB      141             0.0000000000
     16068       141  POPE      H16R            1.9510266452       39.1062163483       -0.1427553259  MEMB      141             0.0000000000
     16069       141  POPE      H16S            3.0750939010       40.4616520482       -0.5330033603  MEMB      141             0.0000000000
     16070       141  POPE      C217            1.4625327641       40.1199011393       -1.9778029090  MEMB      141             0.0000000000
     16071       141  POPE      H17R            2.1272934184       39.4414222402       -2.5540669275  MEMB      141             0.0000000000
     16072       141  POPE      H17S            1.4557228163       41.1764301709       -2.3213447627  MEMB      141             0.0000000000
     16073       141  POPE      C218            0.0089415632       39.5925123713       -2.0351882946  MEMB      141             0.0000000000
     16074       141  POPE      H18R           -0.2345040966       39.1944562499       -3.0434587520  MEMB      141             0.0000000000
     16075       141  POPE      H18S           -0.7886786620       40.3419766129       -1.8443315866  MEMB      141             0.0000000000
     16076       141  POPE      H18T           -0.1384500376       38.7975454192       -1.2732020377  MEMB      141             0.0000000000
     16077       141  POPE      C33            -0.0497962034       40.5380871641       13.0458205433  MEMB      141             0.0000000000
     16078       141  POPE      H3X            -0.3353753788       41.6106713759       12.9975637906  MEMB      141             0.0000000000
     16079       141  POPE      H3Y            -0.7888003103       40.0225848365       12.3958582231  MEMB      141             0.0000000000
     16080       141  POPE      C34             1.2872177006       40.2591917778       12.3031071465  MEMB      141             0.0000000000
     16081       141  POPE      H4X             1.6282779911       39.2052432416       12.2183065681  MEMB      141             0.0000000000
     16082       141  POPE      H4Y             2.0316599131       40.7985087723       12.9270177196  MEMB      141             0.0000000000
     16083       141  POPE      C35             1.4188357545       40.8227976394       10.8462132314  MEMB      141             0.0000000000
     16084       141  POPE      H5X             1.3632388854       41.9317596912       10.8083604337  MEMB      141             0.0000000000
     16085       141  POPE      H5Y             0.6575757755       40.3475397639       10.1912817310  MEMB      141             0.0000000000
     16086       141  POPE      C36             2.8197029853       40.5159221020       10.2790016567  MEMB      141             0.0000000000
     16087       141  POPE      H6X             2.8587592190       39.4733683369        9.8970627365  MEMB      141             0.0000000000
     16088       141  POPE      H6Y             3.5744433431       40.8624032029       11.0169980389  MEMB      141             0.0000000000
     16089       141  POPE      C37             3.1002234292       41.3816226076        9.0054801752  MEMB      141             0.0000000000
     16090       141  POPE      H7X             2.9666180643       42.4714271462        9.1751770516  MEMB      141             0.0000000000
     16091       141  POPE      H7Y             2.4310476061       41.1523171618        8.1487751233  MEMB      141             0.0000000000
     16092       141  POPE      C38             4.5558169057       41.2027651240        8.5356560781  MEMB      141             0.0000000000
     16093       141  POPE      H8X             4.6502845651       40.1665252661        8.1462929523  MEMB      141             0.0000000000
     16094       141  POPE      H8Y             5.1524195203       41.5354159647        9.4118584721  MEMB      141             0.0000000000
     16095       141  POPE      C39             4.8422161282       42.0399226428        7.2613971253  MEMB      141             0.0000000000
     16096       141  POPE      H9X             4.4301918228       43.0426803204        7.5043663442  MEMB      141             0.0000000000
     16097       141  POPE      H9Y             4.4297350060       41.5240369462        6.3680652570  MEMB      141             0.0000000000
     16098       141  POPE      C310            6.3284357773       42.3147306962        7.1076107393  MEMB      141             0.0000000000
     16099       141  POPE      H10X            6.7987639313       41.4343247816        6.6197611158  MEMB      141             0.0000000000
     16100       141  POPE      H10Y            6.7452663702       42.4784888567        8.1243487253  MEMB      141             0.0000000000
     16101       141  POPE      C311            6.4931395688       43.6654817947        6.3661130126  MEMB      141             0.0000000000
     16102       141  POPE      H11X            7.5856307909       43.8643742531        6.4011222601  MEMB      141             0.0000000000
     16103       141  POPE      H11Y            6.0261695095       44.5178813593        6.9043285163  MEMB      141             0.0000000000
     16104       141  POPE      C312            5.7938582506       43.7105168839        4.9191516858  MEMB      141             0.0000000000
     16105       141  POPE      H12X            5.9810133189       44.7408188517        4.5479750685  MEMB      141             0.0000000000
     16106       141  POPE      H12Y            4.6844456201       43.6692061338        4.9617911669  MEMB      141             0.0000000000
     16107       141  POPE      C313            6.2752429911       42.7733713516        3.8326750271  MEMB      141             0.0000000000
     16108       141  POPE      H13X            7.3788543944       42.8507064528        3.9345672901  MEMB      141             0.0000000000
     16109       141  POPE      H13Y            5.9881783524       43.0321861805        2.7910753037  MEMB      141             0.0000000000
     16110       141  POPE      C314            5.9288458075       41.2593740840        3.8787654810  MEMB      141             0.0000000000
     16111       141  POPE      H14X            4.9858743371       41.1114874435        3.3102104579  MEMB      141             0.0000000000
     16112       141  POPE      H14Y            5.7654090125       40.8518437389        4.8993187294  MEMB      141             0.0000000000
     16113       141  POPE      C315            7.0078463359       40.4040658227        3.1885352946  MEMB      141             0.0000000000
     16114       141  POPE      H15X            7.0312526504       39.3473073175        3.5306390285  MEMB      141             0.0000000000
     16115       141  POPE      H15Y            7.9908535577       40.8339698903        3.4769795967  MEMB      141             0.0000000000
     16116       141  POPE      C316            6.7382978551       40.3932089522        1.7330571523  MEMB      141             0.0000000000
     16117       141  POPE      H16X            5.6838862794       40.0834099028        1.5700797122  MEMB      141             0.0000000000
     16118       141  POPE      H16Y            7.5351243522       39.8157963992        1.2173214364  MEMB      141             0.0000000000
     16119       141  POPE      H16Z            6.7646597924       41.4463417999        1.3801587000  MEMB      141             0.0000000000
     16120       142  POPC      N              46.9788337696       24.8481132535       19.2117928175  MEMB      142             0.0000000000
     16121       142  POPC      C12            48.4040596255       24.1524757104       18.9619413067  MEMB      142             0.0000000000
     16122       142  POPC      H12A           48.7384449572       24.3059896520       17.9465497432  MEMB      142             0.0000000000
     16123       142  POPC      H12B           48.1651662473       23.1238621512       19.1884014387  MEMB      142             0.0000000000
     16124       142  POPC      C13            47.1228089073       26.3400379522       19.1362010929  MEMB      142             0.0000000000
     16125       142  POPC      H13A           46.1249997323       26.7484017393       19.1995725910  MEMB      142             0.0000000000
     16126       142  POPC      H13B           47.7990643901       26.6509475724       19.9187698539  MEMB      142             0.0000000000
     16127       142  POPC      H13C           47.5812696926       26.6683367211       18.2150964702  MEMB      142             0.0000000000
     16128       142  POPC      C14            45.9395109808       24.5261223736       18.1702655453  MEMB      142             0.0000000000
     16129       142  POPC      H14A           45.0336560697       25.1106581880       18.2346471477  MEMB      142             0.0000000000
     16130       142  POPC      H14B           46.3524812852       24.7433929909       17.1962793686  MEMB      142             0.0000000000
     16131       142  POPC      H14C           45.7315095906       23.4696231017       18.2536022431  MEMB      142             0.0000000000
     16132       142  POPC      C15            46.4523231324       24.3331287186       20.4898497562  MEMB      142             0.0000000000
     16133       142  POPC      H15A           47.1826508683       24.6346005221       21.2261486997  MEMB      142             0.0000000000
     16134       142  POPC      H15B           46.4018645618       23.2669759442       20.3250103734  MEMB      142             0.0000000000
     16135       142  POPC      H15C           45.4988994260       24.8252876204       20.6129877480  MEMB      142             0.0000000000
     16136       142  POPC      C11            49.5626130508       24.5360489842       19.9841449409  MEMB      142             0.0000000000
     16137       142  POPC      H11A           50.3846215134       23.8192002185       19.7726005563  MEMB      142             0.0000000000
     16138       142  POPC      H11B           49.2083026433       24.2901352561       21.0080158615  MEMB      142             0.0000000000
     16139       142  POPC      P              50.7979599010       26.4737379607       18.5991347387  MEMB      142             0.0000000000
     16140       142  POPC      O13            52.1152550603       25.8282538984       18.5311404545  MEMB      142             0.0000000000
     16141       142  POPC      O14            50.7482216719       27.9420031716       18.6299079752  MEMB      142             0.0000000000
     16142       142  POPC      O12            50.0030021960       25.8873465500       19.8674065844  MEMB      142             0.0000000000
     16143       142  POPC      O11            49.8900669278       26.0255699790       17.4182147879  MEMB      142             0.0000000000
     16144       142  POPC      C1             49.8822047940       26.5597956383       16.1013288241  MEMB      142             0.0000000000
     16145       142  POPC      HA             50.9393964890       26.5946261033       15.7615439593  MEMB      142             0.0000000000
     16146       142  POPC      HB             49.3365511990       27.5268633836       16.1382493349  MEMB      142             0.0000000000
     16147       142  POPC      C2             48.8981856391       25.7503919935       15.2284513897  MEMB      142             0.0000000000
     16148       142  POPC      HS             47.9692786135       25.6116075542       15.8219089158  MEMB      142             0.0000000000
     16149       142  POPC      O21            49.4200799228       24.4647733519       14.8296252207  MEMB      142             0.0000000000
     16150       142  POPC      C21            48.7036301756       23.4499162140       14.5805946145  MEMB      142             0.0000000000
     16151       142  POPC      O22            47.4639461742       23.4341989929       14.5996729277  MEMB      142             0.0000000000
     16152       142  POPC      C22            49.6400070131       22.3424346206       14.0537921226  MEMB      142             0.0000000000
     16153       142  POPC      H2R            50.0760930079       21.8058158782       14.9233842050  MEMB      142             0.0000000000
     16154       142  POPC      H2S            50.5457749702       22.6870288668       13.5105054754  MEMB      142             0.0000000000
     16155       142  POPC      C3             48.5745861059       26.5680505240       13.8510683205  MEMB      142             0.0000000000
     16156       142  POPC      HX             48.0067910998       27.4999887080       14.0594458579  MEMB      142             0.0000000000
     16157       142  POPC      HY             47.8633753138       25.9227096379       13.2924670127  MEMB      142             0.0000000000
     16158       142  POPC      O31            49.7685629371       26.7552514814       13.0722238204  MEMB      142             0.0000000000
     16159       142  POPC      C31            50.2183949522       25.9352478412       12.1329362057  MEMB      142             0.0000000000
     16160       142  POPC      O32            49.6859252597       24.8434275914       11.9661023515  MEMB      142             0.0000000000
     16161       142  POPC      C32            51.3907230601       26.5103281674       11.3105317388  MEMB      142             0.0000000000
     16162       142  POPC      H2X            52.3450301680       26.1895833653       11.7803629691  MEMB      142             0.0000000000
     16163       142  POPC      H2Y            51.2877205471       27.6165392297       11.3134557026  MEMB      142             0.0000000000
     16164       142  POPC      C23            48.8310974080       21.2901263453       13.2884715900  MEMB      142             0.0000000000
     16165       142  POPC      H3R            48.0913707356       21.6624697147       12.5478736485  MEMB      142             0.0000000000
     16166       142  POPC      H3S            48.1352936245       20.8668035202       14.0441012672  MEMB      142             0.0000000000
     16167       142  POPC      C24            49.6635087684       20.1001149188       12.7031655392  MEMB      142             0.0000000000
     16168       142  POPC      H4R            48.8904261388       19.3783391061       12.3630132798  MEMB      142             0.0000000000
     16169       142  POPC      H4S            50.1820512475       19.6137920897       13.5569365258  MEMB      142             0.0000000000
     16170       142  POPC      C25            50.5907125251       20.4323872424       11.5939293609  MEMB      142             0.0000000000
     16171       142  POPC      H5R            51.1769958653       19.5515900664       11.2551225005  MEMB      142             0.0000000000
     16172       142  POPC      H5S            51.4026577648       21.0917690752       11.9684707325  MEMB      142             0.0000000000
     16173       142  POPC      C26            49.9232895318       21.1765307875       10.4275777340  MEMB      142             0.0000000000
     16174       142  POPC      H6R            49.9229556054       22.2821923383       10.5363605588  MEMB      142             0.0000000000
     16175       142  POPC      H6S            48.8858426406       20.7914710775       10.3288179454  MEMB      142             0.0000000000
     16176       142  POPC      C27            50.5946981946       20.8581092343        9.0920235170  MEMB      142             0.0000000000
     16177       142  POPC      H7R            50.2468875289       19.8227328947        8.8886907517  MEMB      142             0.0000000000
     16178       142  POPC      H7S            51.6799978298       20.8589820719        9.3296052937  MEMB      142             0.0000000000
     16179       142  POPC      C28            50.0570664653       21.7492911750        7.9493371982  MEMB      142             0.0000000000
     16180       142  POPC      H8R            50.4941369751       22.7671037910        8.0350551985  MEMB      142             0.0000000000
     16181       142  POPC      H8S            48.9516871770       21.7749894569        8.0579515225  MEMB      142             0.0000000000
     16182       142  POPC      C29            50.4701808297       21.0783807334        6.6448048879  MEMB      142             0.0000000000
     16183       142  POPC      H91            49.7891509292       20.2726193985        6.3334421549  MEMB      142             0.0000000000
     16184       142  POPC      C210           51.4691128291       21.4788601365        5.8059399484  MEMB      142             0.0000000000
     16185       142  POPC      H101           51.5364666465       20.8679108467        4.8936874622  MEMB      142             0.0000000000
     16186       142  POPC      C211           52.4056918979       22.6855374816        6.0383099817  MEMB      142             0.0000000000
     16187       142  POPC      H11R           53.4456845590       22.5476694423        5.6726208469  MEMB      142             0.0000000000
     16188       142  POPC      H11S           52.5951679543       22.8950523425        7.1127968641  MEMB      142             0.0000000000
     16189       142  POPC      C212           51.8341179453       24.0383169161        5.5074453696  MEMB      142             0.0000000000
     16190       142  POPC      H12R           52.6174852717       24.8154707905        5.6366294991  MEMB      142             0.0000000000
     16191       142  POPC      H12S           51.0161567209       24.1604042276        6.2493049545  MEMB      142             0.0000000000
     16192       142  POPC      C213           51.4277805253       23.9717187064        4.0730962610  MEMB      142             0.0000000000
     16193       142  POPC      H13R           50.9202676539       24.9068148904        3.7531784748  MEMB      142             0.0000000000
     16194       142  POPC      H13S           50.7950393605       23.0670902304        3.9481678021  MEMB      142             0.0000000000
     16195       142  POPC      C214           52.6515821958       23.8381242961        3.0817454250  MEMB      142             0.0000000000
     16196       142  POPC      H14R           53.2754664240       22.9403191153        3.2793206971  MEMB      142             0.0000000000
     16197       142  POPC      H14S           53.2173388197       24.7741129103        3.2771058086  MEMB      142             0.0000000000
     16198       142  POPC      C215           52.2496024050       23.8799841216        1.6326835538  MEMB      142             0.0000000000
     16199       142  POPC      H15R           51.3592314738       24.5392388700        1.5493547977  MEMB      142             0.0000000000
     16200       142  POPC      H15S           51.9517942082       22.8534676110        1.3295415581  MEMB      142             0.0000000000
     16201       142  POPC      C216           53.3261273167       24.4618916574        0.6443139642  MEMB      142             0.0000000000
     16202       142  POPC      H16R           54.2054548797       23.8059799657        0.8200544558  MEMB      142             0.0000000000
     16203       142  POPC      H16S           53.5465256355       25.5261456495        0.8747664077  MEMB      142             0.0000000000
     16204       142  POPC      C217           52.9231080442       24.3414292385       -0.8385286643  MEMB      142             0.0000000000
     16205       142  POPC      H17R           52.6603513313       23.2785705377       -1.0272394733  MEMB      142             0.0000000000
     16206       142  POPC      H17S           53.7768042750       24.6351304251       -1.4860340073  MEMB      142             0.0000000000
     16207       142  POPC      C218           51.5527629157       24.9712774816       -1.2463576922  MEMB      142             0.0000000000
     16208       142  POPC      H18R           50.7427980604       24.5415522441       -0.6189700947  MEMB      142             0.0000000000
     16209       142  POPC      H18S           51.3415575652       24.8736016817       -2.3327152365  MEMB      142             0.0000000000
     16210       142  POPC      H18T           51.7001315978       26.0567780185       -1.0611778620  MEMB      142             0.0000000000
     16211       142  POPC      C33            51.4539740363       25.9844096640        9.8603326759  MEMB      142             0.0000000000
     16212       142  POPC      H3X            50.4903201559       26.2381975156        9.3691264227  MEMB      142             0.0000000000
     16213       142  POPC      H3Y            51.6231978220       24.8916755393        9.9681114896  MEMB      142             0.0000000000
     16214       142  POPC      C34            52.6830075022       26.4914402525        9.1403862419  MEMB      142             0.0000000000
     16215       142  POPC      H4X            52.7385656683       26.1060773650        8.0998434182  MEMB      142             0.0000000000
     16216       142  POPC      H4Y            53.6106735012       26.1173002794        9.6238903275  MEMB      142             0.0000000000
     16217       142  POPC      C35            52.6911579187       28.0013881801        8.9917184141  MEMB      142             0.0000000000
     16218       142  POPC      H5X            53.4110736470       28.3704637555        8.2302562622  MEMB      142             0.0000000000
     16219       142  POPC      H5Y            53.0940441707       28.3248343565        9.9752764231  MEMB      142             0.0000000000
     16220       142  POPC      C36            51.3373311066       28.6930163358        8.6547985777  MEMB      142             0.0000000000
     16221       142  POPC      H6X            51.3156083131       29.8010730233        8.5769571655  MEMB      142             0.0000000000
     16222       142  POPC      H6Y            50.4953082739       28.4606431873        9.3413276325  MEMB      142             0.0000000000
     16223       142  POPC      C37            50.9685463250       28.3042309293        7.2602602689  MEMB      142             0.0000000000
     16224       142  POPC      H7X            51.0958278915       27.2145157961        7.0852132519  MEMB      142             0.0000000000
     16225       142  POPC      H7Y            51.7561352776       28.7925796576        6.6474468537  MEMB      142             0.0000000000
     16226       142  POPC      C38            49.5221144580       28.6500127230        6.8259618101  MEMB      142             0.0000000000
     16227       142  POPC      H8X            49.4499575890       28.8331208156        5.7325330480  MEMB      142             0.0000000000
     16228       142  POPC      H8Y            49.0971206039       29.5743271188        7.2724419950  MEMB      142             0.0000000000
     16229       142  POPC      C39            48.5006031266       27.5182428238        7.0936577569  MEMB      142             0.0000000000
     16230       142  POPC      H9X            48.2376428965       27.5894251052        8.1707398394  MEMB      142             0.0000000000
     16231       142  POPC      H9Y            49.0192780097       26.5435242624        6.9702835500  MEMB      142             0.0000000000
     16232       142  POPC      C310           47.2022361075       27.4453907654        6.2680298578  MEMB      142             0.0000000000
     16233       142  POPC      H10X           46.6058752236       28.3772102636        6.3699462998  MEMB      142             0.0000000000
     16234       142  POPC      H10Y           46.5619100497       26.5852349115        6.5586081384  MEMB      142             0.0000000000
     16235       142  POPC      C311           47.4214017438       27.1251267419        4.7488725247  MEMB      142             0.0000000000
     16236       142  POPC      H11X           48.2870106625       26.4510928470        4.5736001014  MEMB      142             0.0000000000
     16237       142  POPC      H11Y           47.7750610861       28.0769531262        4.2980152564  MEMB      142             0.0000000000
     16238       142  POPC      C312           46.2009947741       26.5763276459        3.9848442293  MEMB      142             0.0000000000
     16239       142  POPC      H12X           45.3915737031       27.3223558924        3.8345102923  MEMB      142             0.0000000000
     16240       142  POPC      H12Y           45.7955487491       25.7648691589        4.6263032713  MEMB      142             0.0000000000
     16241       142  POPC      C313           46.4919201215       26.0975319836        2.5164684876  MEMB      142             0.0000000000
     16242       142  POPC      H13X           46.9747398716       26.9387226915        1.9746165038  MEMB      142             0.0000000000
     16243       142  POPC      H13Y           45.5317600918       25.8073860559        2.0387346913  MEMB      142             0.0000000000
     16244       142  POPC      C314           47.3833271770       24.9132209426        2.4251339061  MEMB      142             0.0000000000
     16245       142  POPC      H14X           48.3035357117       24.9621697385        3.0457305266  MEMB      142             0.0000000000
     16246       142  POPC      H14Y           47.6896582586       24.8601174098        1.3585212693  MEMB      142             0.0000000000
     16247       142  POPC      C315           46.7176110265       23.5903362287        2.6980207601  MEMB      142             0.0000000000
     16248       142  POPC      H15X           46.0782734616       23.2147261486        1.8706860187  MEMB      142             0.0000000000
     16249       142  POPC      H15Y           46.0019585223       23.8443824645        3.5089611685  MEMB      142             0.0000000000
     16250       142  POPC      C316           47.5417620441       22.4871374503        3.2112709072  MEMB      142             0.0000000000
     16251       142  POPC      H16X           48.2859738383       22.1408747413        2.4625580538  MEMB      142             0.0000000000
     16252       142  POPC      H16Y           46.9235575409       21.5723204797        3.3347782522  MEMB      142             0.0000000000
     16253       142  POPC      H16Z           48.0879489285       22.6371066729        4.1670479645  MEMB      142             0.0000000000
     16254       143  POPC      N              13.1580103039      -52.1586987185       17.3070942985  MEMB      143             0.0000000000
     16255       143  POPC      C12            12.1867073026      -53.1577553128       17.8615636388  MEMB      143             0.0000000000
     16256       143  POPC      H12A           12.6344529139      -54.1310779277       17.7253029954  MEMB      143             0.0000000000
     16257       143  POPC      H12B           11.3144477662      -53.1511350600       17.2247594904  MEMB      143             0.0000000000
     16258       143  POPC      C13            13.5268163936      -52.6568634189       15.8914067438  MEMB      143             0.0000000000
     16259       143  POPC      H13A           14.0352216356      -53.6086049788       15.9373642336  MEMB      143             0.0000000000
     16260       143  POPC      H13B           12.6878771730      -52.7853207450       15.2235147768  MEMB      143             0.0000000000
     16261       143  POPC      H13C           14.1629983136      -51.9566187513       15.3705132734  MEMB      143             0.0000000000
     16262       143  POPC      C14            12.5140973751      -50.8150685553       17.1641321923  MEMB      143             0.0000000000
     16263       143  POPC      H14A           11.4721504352      -50.9706735749       16.9263644838  MEMB      143             0.0000000000
     16264       143  POPC      H14B           12.4809606018      -50.2996741940       18.1126418441  MEMB      143             0.0000000000
     16265       143  POPC      H14C           13.0373634882      -50.1404081270       16.5027502987  MEMB      143             0.0000000000
     16266       143  POPC      C15            14.3774560702      -52.0583989681       18.1616905275  MEMB      143             0.0000000000
     16267       143  POPC      H15A           15.2202294485      -51.6317119489       17.6381722705  MEMB      143             0.0000000000
     16268       143  POPC      H15B           14.5478291567      -53.1033534829       18.3748645094  MEMB      143             0.0000000000
     16269       143  POPC      H15C           14.1936771407      -51.6885590087       19.1596102197  MEMB      143             0.0000000000
     16270       143  POPC      C11            11.5973485043      -53.0112525624       19.2286013958  MEMB      143             0.0000000000
     16271       143  POPC      H11A           10.9316803752      -53.8917272703       19.3549791054  MEMB      143             0.0000000000
     16272       143  POPC      H11B           10.9912008494      -52.0933990000       19.3849686370  MEMB      143             0.0000000000
     16273       143  POPC      P              13.1232250903      -54.3951327598       20.7406417653  MEMB      143             0.0000000000
     16274       143  POPC      O13            11.9632180601      -55.2075286254       21.1619158241  MEMB      143             0.0000000000
     16275       143  POPC      O14            14.2095193171      -54.1576105767       21.7322344406  MEMB      143             0.0000000000
     16276       143  POPC      O12            12.6592571504      -52.9733207489       20.2482709244  MEMB      143             0.0000000000
     16277       143  POPC      O11            13.7520912355      -55.0910618890       19.5024482852  MEMB      143             0.0000000000
     16278       143  POPC      C1             13.5808644756      -56.4690277500       19.1670007132  MEMB      143             0.0000000000
     16279       143  POPC      HA             12.6521891246      -56.4651858574       18.5571906063  MEMB      143             0.0000000000
     16280       143  POPC      HB             13.5023088020      -57.0464275182       20.1129180552  MEMB      143             0.0000000000
     16281       143  POPC      C2             14.8169737433      -56.9620907565       18.3413319679  MEMB      143             0.0000000000
     16282       143  POPC      HS             15.5954446352      -57.2861124221       19.0647366955  MEMB      143             0.0000000000
     16283       143  POPC      O21            15.2756361317      -55.8517404061       17.4748465326  MEMB      143             0.0000000000
     16284       143  POPC      C21            16.5745796228      -55.8175501696       17.2395677284  MEMB      143             0.0000000000
     16285       143  POPC      O22            17.3837154125      -56.6558804477       17.6214987022  MEMB      143             0.0000000000
     16286       143  POPC      C22            16.8842820498      -54.5769368357       16.4425291849  MEMB      143             0.0000000000
     16287       143  POPC      H2R            16.6528724638      -53.6520690679       17.0129589325  MEMB      143             0.0000000000
     16288       143  POPC      H2S            16.3250033191      -54.6491950039       15.4852896561  MEMB      143             0.0000000000
     16289       143  POPC      C3             14.3884070964      -58.0667122745       17.3794177501  MEMB      143             0.0000000000
     16290       143  POPC      HX             13.8920203775      -58.8692041768       17.9658715259  MEMB      143             0.0000000000
     16291       143  POPC      HY             15.2234366313      -58.5174266485       16.8015742098  MEMB      143             0.0000000000
     16292       143  POPC      O31            13.3306679295      -57.5443012808       16.5808140823  MEMB      143             0.0000000000
     16293       143  POPC      C31            13.6380803073      -57.1254843323       15.3577596166  MEMB      143             0.0000000000
     16294       143  POPC      O32            14.7630110831      -56.8897638030       14.9526062792  MEMB      143             0.0000000000
     16295       143  POPC      C32            12.3034682843      -56.9359690167       14.5677246647  MEMB      143             0.0000000000
     16296       143  POPC      H2X            11.5517380954      -56.5022735620       15.2613611035  MEMB      143             0.0000000000
     16297       143  POPC      H2Y            11.9311357145      -57.9232190385       14.2198353717  MEMB      143             0.0000000000
     16298       143  POPC      C23            18.3566460484      -54.6203744000       16.0507650074  MEMB      143             0.0000000000
     16299       143  POPC      H3R            18.9073032829      -54.7076900405       17.0117405770  MEMB      143             0.0000000000
     16300       143  POPC      H3S            18.6865022586      -53.5989302916       15.7641163026  MEMB      143             0.0000000000
     16301       143  POPC      C24            18.6978238932      -55.5078848166       14.8128298331  MEMB      143             0.0000000000
     16302       143  POPC      H4R            18.2191910462      -56.5049225821       14.9184104983  MEMB      143             0.0000000000
     16303       143  POPC      H4S            19.8035125019      -55.6154565082       14.7986241336  MEMB      143             0.0000000000
     16304       143  POPC      C25            18.1790995777      -54.9907743568       13.4235887059  MEMB      143             0.0000000000
     16305       143  POPC      H5R            18.4983995357      -53.9266466165       13.4226707520  MEMB      143             0.0000000000
     16306       143  POPC      H5S            17.0745378121      -54.9810008528       13.5426230697  MEMB      143             0.0000000000
     16307       143  POPC      C26            18.6993419651      -55.8410802047       12.1798869442  MEMB      143             0.0000000000
     16308       143  POPC      H6R            18.9899696824      -56.8479752133       12.5486948757  MEMB      143             0.0000000000
     16309       143  POPC      H6S            19.6527098581      -55.4581041526       11.7571108449  MEMB      143             0.0000000000
     16310       143  POPC      C27            17.6538919072      -56.0367580217       10.9507281669  MEMB      143             0.0000000000
     16311       143  POPC      H7R            17.3329924869      -55.0222130446       10.6312863510  MEMB      143             0.0000000000
     16312       143  POPC      H7S            16.7003911903      -56.4286921875       11.3649080118  MEMB      143             0.0000000000
     16313       143  POPC      C28            18.2186528061      -56.8679207793        9.7787199311  MEMB      143             0.0000000000
     16314       143  POPC      H8R            18.3828946186      -57.8769096136       10.2137913472  MEMB      143             0.0000000000
     16315       143  POPC      H8S            19.1436767718      -56.3368056708        9.4679664910  MEMB      143             0.0000000000
     16316       143  POPC      C29            17.1820889485      -56.9164038297        8.6336194592  MEMB      143             0.0000000000
     16317       143  POPC      H91            16.7588322638      -57.9311757755        8.6005797266  MEMB      143             0.0000000000
     16318       143  POPC      C210           17.0568420801      -55.9370582610        7.7348951339  MEMB      143             0.0000000000
     16319       143  POPC      H101           16.3189304314      -56.0742751034        6.9307450381  MEMB      143             0.0000000000
     16320       143  POPC      C211           17.7522648783      -54.5847491181        7.5727707787  MEMB      143             0.0000000000
     16321       143  POPC      H11R           18.4175148704      -54.6370297150        6.6844962715  MEMB      143             0.0000000000
     16322       143  POPC      H11S           18.3941663555      -54.3393398219        8.4457297176  MEMB      143             0.0000000000
     16323       143  POPC      C212           16.7389566582      -53.4956721706        7.3152566004  MEMB      143             0.0000000000
     16324       143  POPC      H12R           17.3010271300      -52.5376183045        7.3382915014  MEMB      143             0.0000000000
     16325       143  POPC      H12S           15.9226757743      -53.4160272291        8.0646994709  MEMB      143             0.0000000000
     16326       143  POPC      C213           16.1315212664      -53.6298497841        5.9187765183  MEMB      143             0.0000000000
     16327       143  POPC      H13R           15.6695803540      -54.6106934203        5.6761295179  MEMB      143             0.0000000000
     16328       143  POPC      H13S           16.9246681830      -53.5873181891        5.1419694185  MEMB      143             0.0000000000
     16329       143  POPC      C214           15.1478106078      -52.4587202130        5.6435554011  MEMB      143             0.0000000000
     16330       143  POPC      H14R           15.4075103118      -51.7829743394        6.4863154541  MEMB      143             0.0000000000
     16331       143  POPC      H14S           14.1201672034      -52.8305139860        5.8436537332  MEMB      143             0.0000000000
     16332       143  POPC      C215           15.4793698804      -51.7244312474        4.3050357462  MEMB      143             0.0000000000
     16333       143  POPC      H15R           16.5048247615      -51.3182780676        4.4384639882  MEMB      143             0.0000000000
     16334       143  POPC      H15S           14.8875640457      -50.7844092581        4.3261337524  MEMB      143             0.0000000000
     16335       143  POPC      C216           15.1901709601      -52.5171413719        3.0538695901  MEMB      143             0.0000000000
     16336       143  POPC      H16R           14.2014369696      -52.9707802802        3.2795640895  MEMB      143             0.0000000000
     16337       143  POPC      H16S           16.0070741812      -53.2700787565        3.0625560633  MEMB      143             0.0000000000
     16338       143  POPC      C217           15.3255956044      -51.7983148003        1.7550278628  MEMB      143             0.0000000000
     16339       143  POPC      H17R           16.0087976047      -50.9362149952        1.9110397541  MEMB      143             0.0000000000
     16340       143  POPC      H17S           14.3335667740      -51.3820366227        1.4776974895  MEMB      143             0.0000000000
     16341       143  POPC      C218           15.8713627532      -52.6762098261        0.5885448200  MEMB      143             0.0000000000
     16342       143  POPC      H18R           15.7944885252      -52.0395684355       -0.3187032581  MEMB      143             0.0000000000
     16343       143  POPC      H18S           15.3710941267      -53.6387272787        0.3485193274  MEMB      143             0.0000000000
     16344       143  POPC      H18T           16.9724910037      -52.8235696583        0.5774882252  MEMB      143             0.0000000000
     16345       143  POPC      C33            12.6454435717      -55.9167831359       13.5183185569  MEMB      143             0.0000000000
     16346       143  POPC      H3X            13.2988522843      -56.4264597624       12.7783131574  MEMB      143             0.0000000000
     16347       143  POPC      H3Y            13.2192620331      -55.0000046710       13.7724259744  MEMB      143             0.0000000000
     16348       143  POPC      C34            11.3608525027      -55.4554403391       12.7440714529  MEMB      143             0.0000000000
     16349       143  POPC      H4X            10.6369958476      -54.9729450186       13.4351216013  MEMB      143             0.0000000000
     16350       143  POPC      H4Y            10.7121508928      -56.2096462208       12.2494189294  MEMB      143             0.0000000000
     16351       143  POPC      C35            11.7688078980      -54.4602393703       11.5505500446  MEMB      143             0.0000000000
     16352       143  POPC      H5X            12.3205160120      -53.6090427376       12.0037649537  MEMB      143             0.0000000000
     16353       143  POPC      H5Y            10.9918946015      -54.0894910407       10.8482165491  MEMB      143             0.0000000000
     16354       143  POPC      C36            12.7853451615      -55.0408690607       10.5936128263  MEMB      143             0.0000000000
     16355       143  POPC      H6X            12.3232324393      -55.8763005852       10.0254338298  MEMB      143             0.0000000000
     16356       143  POPC      H6Y            13.6578803061      -55.4695493990       11.1314200047  MEMB      143             0.0000000000
     16357       143  POPC      C37            13.3250544526      -54.1261700334        9.5007758108  MEMB      143             0.0000000000
     16358       143  POPC      H7X            14.2136686761      -54.6251146965        9.0583504205  MEMB      143             0.0000000000
     16359       143  POPC      H7Y            13.7810435960      -53.1883456913        9.8840255903  MEMB      143             0.0000000000
     16360       143  POPC      C38            12.3068918751      -53.7819124880        8.3739271723  MEMB      143             0.0000000000
     16361       143  POPC      H8X            12.9203845847      -53.2207103162        7.6370421418  MEMB      143             0.0000000000
     16362       143  POPC      H8Y            11.5046677627      -53.1185166415        8.7620820880  MEMB      143             0.0000000000
     16363       143  POPC      C39            11.6712856102      -54.8370458427        7.4624424882  MEMB      143             0.0000000000
     16364       143  POPC      H9X            11.3720559533      -54.3664043750        6.5015684525  MEMB      143             0.0000000000
     16365       143  POPC      H9Y            10.8234890055      -55.2718992873        8.0338137240  MEMB      143             0.0000000000
     16366       143  POPC      C310           12.6752398192      -55.8165000773        6.9479083423  MEMB      143             0.0000000000
     16367       143  POPC      H10X           12.9293523448      -56.4980783712        7.7876694578  MEMB      143             0.0000000000
     16368       143  POPC      H10Y           13.4901843212      -55.3038127711        6.3935275208  MEMB      143             0.0000000000
     16369       143  POPC      C311           12.1018858859      -56.7496101321        5.8108251970  MEMB      143             0.0000000000
     16370       143  POPC      H11X           11.1991023019      -56.3324231311        5.3155898738  MEMB      143             0.0000000000
     16371       143  POPC      H11Y           11.7854889704      -57.7100482251        6.2710132232  MEMB      143             0.0000000000
     16372       143  POPC      C312           13.1984780325      -57.1176172926        4.7530628740  MEMB      143             0.0000000000
     16373       143  POPC      H12X           12.6668422689      -57.8685947294        4.1303943338  MEMB      143             0.0000000000
     16374       143  POPC      H12Y           14.0773158528      -57.5827793876        5.2486326303  MEMB      143             0.0000000000
     16375       143  POPC      C313           13.6319529490      -56.1970415002        3.6848480026  MEMB      143             0.0000000000
     16376       143  POPC      H13X           14.6460682583      -56.5396433088        3.3873343047  MEMB      143             0.0000000000
     16377       143  POPC      H13Y           13.7029875724      -55.2018891970        4.1736697231  MEMB      143             0.0000000000
     16378       143  POPC      C314           12.6306615693      -56.1162836160        2.4787368523  MEMB      143             0.0000000000
     16379       143  POPC      H14X           11.6133548757      -56.2648306959        2.8998573750  MEMB      143             0.0000000000
     16380       143  POPC      H14Y           12.7239518520      -56.9479047574        1.7479674877  MEMB      143             0.0000000000
     16381       143  POPC      C315           12.8183563504      -54.7624018914        1.6513007136  MEMB      143             0.0000000000
     16382       143  POPC      H15X           13.8984336932      -54.5120984081        1.5798689569  MEMB      143             0.0000000000
     16383       143  POPC      H15Y           12.2255273389      -53.9611671823        2.1421154832  MEMB      143             0.0000000000
     16384       143  POPC      C316           12.4404401696      -54.7554827660        0.1390618542  MEMB      143             0.0000000000
     16385       143  POPC      H16X           11.5444833692      -55.3979379731        0.0018261886  MEMB      143             0.0000000000
     16386       143  POPC      H16Y           13.3216554301      -55.2315090083       -0.3417501085  MEMB      143             0.0000000000
     16387       143  POPC      H16Z           12.2490116963      -53.7566193678       -0.3080931457  MEMB      143             0.0000000000
     16388       144  POPE      N             -33.6190241429      -31.7148674023       19.7936307905  MEMB      144             0.0000000000
     16389       144  POPE      HN1           -33.9635582077      -32.4917238454       19.1941389956  MEMB      144             0.0000000000
     16390       144  POPE      HN2           -34.1652983046      -31.9493689976       20.6469735000  MEMB      144             0.0000000000
     16391       144  POPE      HN3           -33.9406883098      -30.8268932472       19.3581610041  MEMB      144             0.0000000000
     16392       144  POPE      C12           -32.1244503598      -31.8099662392       20.0771477646  MEMB      144             0.0000000000
     16393       144  POPE      H12A          -32.0287687797      -31.2577495242       21.0364302182  MEMB      144             0.0000000000
     16394       144  POPE      H12B          -31.5022915133      -31.2328547382       19.3600831343  MEMB      144             0.0000000000
     16395       144  POPE      C11           -31.5081853010      -33.2616555898       20.1118359618  MEMB      144             0.0000000000
     16396       144  POPE      H11A          -32.0175324791      -33.8315143242       20.9181533090  MEMB      144             0.0000000000
     16397       144  POPE      H11B          -30.4900906504      -33.0758075393       20.5158964348  MEMB      144             0.0000000000
     16398       144  POPE      P             -30.3649664057      -34.9700706824       18.4489492483  MEMB      144             0.0000000000
     16399       144  POPE      O13           -30.1275521340      -35.9138243253       19.5437002794  MEMB      144             0.0000000000
     16400       144  POPE      O14           -29.2804100150      -34.1618471557       17.8493349052  MEMB      144             0.0000000000
     16401       144  POPE      O11           -31.0833246259      -35.8263090130       17.2961366134  MEMB      144             0.0000000000
     16402       144  POPE      O12           -31.5608712726      -33.9597217376       18.8792644372  MEMB      144             0.0000000000
     16403       144  POPE      C1            -32.0442859026      -36.8203388878       17.7177209964  MEMB      144             0.0000000000
     16404       144  POPE      HA            -32.6600918075      -36.2884785945       18.4741789669  MEMB      144             0.0000000000
     16405       144  POPE      HB            -31.4687868917      -37.7024614832       18.0712482830  MEMB      144             0.0000000000
     16406       144  POPE      C2            -33.0561790956      -37.2122399572       16.6444426262  MEMB      144             0.0000000000
     16407       144  POPE      HS            -33.5603634360      -38.0760475741       17.1281320381  MEMB      144             0.0000000000
     16408       144  POPE      O21           -32.4100898182      -37.4454235815       15.4296444944  MEMB      144             0.0000000000
     16409       144  POPE      C21           -31.4744412816      -38.4757849341       15.3818356579  MEMB      144             0.0000000000
     16410       144  POPE      O22           -31.3645271247      -39.3848273812       16.1961912594  MEMB      144             0.0000000000
     16411       144  POPE      C22           -30.6156886855      -38.2532862939       14.0719968159  MEMB      144             0.0000000000
     16412       144  POPE      H2R           -29.7513953245      -38.9378049123       14.2089347833  MEMB      144             0.0000000000
     16413       144  POPE      H2S           -30.4165773865      -37.1814310665       13.8579828178  MEMB      144             0.0000000000
     16414       144  POPE      C3            -34.1179446571      -36.1204746083       16.4758199364  MEMB      144             0.0000000000
     16415       144  POPE      HX            -34.5214544710      -36.0161619379       17.5056839067  MEMB      144             0.0000000000
     16416       144  POPE      HY            -35.0039688844      -36.4040142942       15.8684589892  MEMB      144             0.0000000000
     16417       144  POPE      O31           -33.6308131223      -34.8215662671       16.0800382258  MEMB      144             0.0000000000
     16418       144  POPE      C31           -33.7337369211      -34.5364391727       14.7698381347  MEMB      144             0.0000000000
     16419       144  POPE      O32           -34.0821510996      -35.2548530750       13.8358296983  MEMB      144             0.0000000000
     16420       144  POPE      C32           -33.3362490529      -33.1431102195       14.5446324681  MEMB      144             0.0000000000
     16421       144  POPE      H2X           -33.4832972191      -32.4820771282       15.4253896227  MEMB      144             0.0000000000
     16422       144  POPE      H2Y           -34.0050330838      -32.6976298648       13.7774321601  MEMB      144             0.0000000000
     16423       144  POPE      C23           -31.4576676343      -38.8450363381       12.9188728436  MEMB      144             0.0000000000
     16424       144  POPE      H3R           -32.4918959207      -38.4503407511       13.0132560531  MEMB      144             0.0000000000
     16425       144  POPE      H3S           -31.5313437554      -39.9533663062       12.8965673301  MEMB      144             0.0000000000
     16426       144  POPE      C24           -30.8734110953      -38.4762877285       11.5243892034  MEMB      144             0.0000000000
     16427       144  POPE      H4R           -29.8433125339      -38.8733535861       11.3996632811  MEMB      144             0.0000000000
     16428       144  POPE      H4S           -30.6471243126      -37.3920840507       11.6116683632  MEMB      144             0.0000000000
     16429       144  POPE      C25           -31.7300477273      -38.9621899939       10.4154562422  MEMB      144             0.0000000000
     16430       144  POPE      H5R           -31.8775551874      -40.0426589184       10.6279414904  MEMB      144             0.0000000000
     16431       144  POPE      H5S           -31.1782993411      -38.8466210463        9.4580960392  MEMB      144             0.0000000000
     16432       144  POPE      C26           -33.1476327392      -38.3982726608       10.4310662392  MEMB      144             0.0000000000
     16433       144  POPE      H6R           -33.6105589892      -38.8262902761       11.3458456784  MEMB      144             0.0000000000
     16434       144  POPE      H6S           -33.5659868755      -38.8376672960        9.5003503522  MEMB      144             0.0000000000
     16435       144  POPE      C27           -33.3054378061      -36.9062053599       10.4955694676  MEMB      144             0.0000000000
     16436       144  POPE      H7R           -32.7198971203      -36.4438921104        9.6723259302  MEMB      144             0.0000000000
     16437       144  POPE      H7S           -32.9024330022      -36.4096321399       11.4040426339  MEMB      144             0.0000000000
     16438       144  POPE      C28           -34.8088838249      -36.5173795145       10.4080796801  MEMB      144             0.0000000000
     16439       144  POPE      H8R           -35.3207080725      -37.3335379759       10.9614710017  MEMB      144             0.0000000000
     16440       144  POPE      H8S           -35.1114983156      -36.6776611772        9.3511707654  MEMB      144             0.0000000000
     16441       144  POPE      C29           -35.2194941380      -35.1825787971       11.0124986515  MEMB      144             0.0000000000
     16442       144  POPE      H91           -35.7271289461      -35.2951928684       11.9818411233  MEMB      144             0.0000000000
     16443       144  POPE      C210          -35.0930243719      -34.0038601330       10.4083771906  MEMB      144             0.0000000000
     16444       144  POPE      H101          -35.4140414512      -33.0885872618       10.9272449885  MEMB      144             0.0000000000
     16445       144  POPE      C211          -34.5363647095      -33.7367718662        9.0131656614  MEMB      144             0.0000000000
     16446       144  POPE      H11R          -35.3279150595      -33.0911459978        8.5762029244  MEMB      144             0.0000000000
     16447       144  POPE      H11S          -34.4467986782      -34.6547939572        8.3938644836  MEMB      144             0.0000000000
     16448       144  POPE      C212          -33.1987269057      -33.1487080874        9.1400395655  MEMB      144             0.0000000000
     16449       144  POPE      H12R          -32.5601518362      -33.8634417824        9.7019099930  MEMB      144             0.0000000000
     16450       144  POPE      H12S          -33.2832990493      -32.3241318954        9.8797979367  MEMB      144             0.0000000000
     16451       144  POPE      C213          -32.4713609099      -32.8511595886        7.8487281297  MEMB      144             0.0000000000
     16452       144  POPE      H13R          -31.5140940342      -32.3442911769        8.0958014701  MEMB      144             0.0000000000
     16453       144  POPE      H13S          -33.0983866945      -32.1438814114        7.2648466274  MEMB      144             0.0000000000
     16454       144  POPE      C214          -32.1587567079      -34.1107718880        7.0215022993  MEMB      144             0.0000000000
     16455       144  POPE      H14R          -33.1583302965      -34.5289466720        6.7759351085  MEMB      144             0.0000000000
     16456       144  POPE      H14S          -31.4545564710      -34.8336921984        7.4860550749  MEMB      144             0.0000000000
     16457       144  POPE      C215          -31.5385328227      -33.6525910696        5.6233012252  MEMB      144             0.0000000000
     16458       144  POPE      H15R          -30.7393559302      -32.9063441785        5.8201576408  MEMB      144             0.0000000000
     16459       144  POPE      H15S          -32.4375534932      -33.1428574488        5.2155578612  MEMB      144             0.0000000000
     16460       144  POPE      C216          -31.1609279354      -34.7702636714        4.6373514475  MEMB      144             0.0000000000
     16461       144  POPE      H16R          -32.0819876436      -35.3693224801        4.4727347528  MEMB      144             0.0000000000
     16462       144  POPE      H16S          -30.3657292344      -35.3923027291        5.1010835028  MEMB      144             0.0000000000
     16463       144  POPE      C217          -30.4728604914      -34.2691040948        3.3824374514  MEMB      144             0.0000000000
     16464       144  POPE      H17R          -29.3775061696      -34.3174928727        3.5618211470  MEMB      144             0.0000000000
     16465       144  POPE      H17S          -30.5969309801      -33.1664113453        3.3276977558  MEMB      144             0.0000000000
     16466       144  POPE      C218          -30.9485644941      -34.8205215038        2.0400914094  MEMB      144             0.0000000000
     16467       144  POPE      H18R          -32.0377561293      -34.6081458464        1.9864342865  MEMB      144             0.0000000000
     16468       144  POPE      H18S          -30.9027604685      -35.9282149198        2.1124686107  MEMB      144             0.0000000000
     16469       144  POPE      H18T          -30.3806767224      -34.5292947246        1.1306890994  MEMB      144             0.0000000000
     16470       144  POPE      C33           -31.8820539265      -33.1841812039       14.0841531428  MEMB      144             0.0000000000
     16471       144  POPE      H3X           -31.2930358152      -33.8826569792       14.7162212518  MEMB      144             0.0000000000
     16472       144  POPE      H3Y           -31.5361899383      -32.1302956009       14.0207165274  MEMB      144             0.0000000000
     16473       144  POPE      C34           -31.5704961212      -33.6148309728       12.6893471234  MEMB      144             0.0000000000
     16474       144  POPE      H4X           -32.1889107365      -32.9972214802       12.0034589316  MEMB      144             0.0000000000
     16475       144  POPE      H4Y           -31.8376920495      -34.6854249591       12.5599027937  MEMB      144             0.0000000000
     16476       144  POPE      C35           -30.1400373921      -33.3085313875       12.2438959523  MEMB      144             0.0000000000
     16477       144  POPE      H5X           -29.5631355956      -34.0287063932       12.8626472689  MEMB      144             0.0000000000
     16478       144  POPE      H5Y           -29.9304128669      -32.2321136182       12.4219509180  MEMB      144             0.0000000000
     16479       144  POPE      C36           -29.7941376954      -33.6654973564       10.8061343797  MEMB      144             0.0000000000
     16480       144  POPE      H6X           -30.3842452769      -32.9619990569       10.1806872242  MEMB      144             0.0000000000
     16481       144  POPE      H6Y           -30.1218329183      -34.7080145478       10.6058985748  MEMB      144             0.0000000000
     16482       144  POPE      C37           -28.2812282056      -33.4544621261       10.3562911166  MEMB      144             0.0000000000
     16483       144  POPE      H7X           -28.1162334376      -32.4073351682       10.6888907276  MEMB      144             0.0000000000
     16484       144  POPE      H7Y           -28.2495328915      -33.5278230777        9.2481681472  MEMB      144             0.0000000000
     16485       144  POPE      C38           -27.2768402475      -34.4575529129       11.0273961671  MEMB      144             0.0000000000
     16486       144  POPE      H8X           -27.2405180800      -34.2593558240       12.1199708981  MEMB      144             0.0000000000
     16487       144  POPE      H8Y           -26.2923249126      -34.1336336019       10.6272378781  MEMB      144             0.0000000000
     16488       144  POPE      C39           -27.6442497892      -35.9953172461       10.8184201420  MEMB      144             0.0000000000
     16489       144  POPE      H9X           -28.3445084612      -36.3728682349       11.5939286481  MEMB      144             0.0000000000
     16490       144  POPE      H9Y           -26.6859004306      -36.5556850494       10.7751141487  MEMB      144             0.0000000000
     16491       144  POPE      C310          -28.3138032550      -36.4023557141        9.4749312165  MEMB      144             0.0000000000
     16492       144  POPE      H10X          -27.9199772023      -35.7741761221        8.6475180916  MEMB      144             0.0000000000
     16493       144  POPE      H10Y          -29.4126338970      -36.3104992468        9.6107786150  MEMB      144             0.0000000000
     16494       144  POPE      C311          -27.9019087326      -37.7920067382        8.9520998098  MEMB      144             0.0000000000
     16495       144  POPE      H11X          -28.3032620039      -38.6047264527        9.5945350643  MEMB      144             0.0000000000
     16496       144  POPE      H11Y          -26.7970004129      -37.9063855825        8.9724948748  MEMB      144             0.0000000000
     16497       144  POPE      C312          -28.3887471247      -38.1304304230        7.4792878582  MEMB      144             0.0000000000
     16498       144  POPE      H12X          -29.4896061519      -38.1161600876        7.3302011721  MEMB      144             0.0000000000
     16499       144  POPE      H12Y          -27.9994820753      -39.1691288316        7.4168406834  MEMB      144             0.0000000000
     16500       144  POPE      C313          -27.8135025036      -37.1453718890        6.4272209563  MEMB      144             0.0000000000
     16501       144  POPE      H13X          -26.7318042845      -36.9186511108        6.5405683290  MEMB      144             0.0000000000
     16502       144  POPE      H13Y          -28.3788950659      -36.2077434091        6.6156491374  MEMB      144             0.0000000000
     16503       144  POPE      C314          -27.9668544797      -37.8830619637        5.0314675650  MEMB      144             0.0000000000
     16504       144  POPE      H14X          -29.0295517962      -38.1248821016        4.8157857721  MEMB      144             0.0000000000
     16505       144  POPE      H14Y          -27.3789880498      -38.8255021408        5.0082139363  MEMB      144             0.0000000000
     16506       144  POPE      C315          -27.6319649764      -36.9202312549        3.9048731880  MEMB      144             0.0000000000
     16507       144  POPE      H15X          -26.6028099961      -36.5171808334        4.0176169238  MEMB      144             0.0000000000
     16508       144  POPE      H15Y          -28.4266824392      -36.1474787004        3.8300484701  MEMB      144             0.0000000000
     16509       144  POPE      C316          -27.6768731813      -37.5404048030        2.4722185476  MEMB      144             0.0000000000
     16510       144  POPE      H16X          -27.0231356653      -38.4205857247        2.2926899736  MEMB      144             0.0000000000
     16511       144  POPE      H16Y          -27.4030032435      -36.7528474398        1.7380051350  MEMB      144             0.0000000000
     16512       144  POPE      H16Z          -28.7443320725      -37.7833209713        2.2828931873  MEMB      144             0.0000000000
     16513       145  POPC      N              36.4454079862      -24.0046168821       20.7255675400  MEMB      145             0.0000000000
     16514       145  POPC      C12            36.9810252896      -24.5028814203       19.3547102733  MEMB      145             0.0000000000
     16515       145  POPC      H12A           37.1615737699      -25.5662320814       19.2991439444  MEMB      145             0.0000000000
     16516       145  POPC      H12B           37.9023111219      -23.9769774347       19.1520837256  MEMB      145             0.0000000000
     16517       145  POPC      C13            35.2514776193      -24.7041032586       21.2002497331  MEMB      145             0.0000000000
     16518       145  POPC      H13A           34.3123686393      -24.2136845214       20.9905740730  MEMB      145             0.0000000000
     16519       145  POPC      H13B           35.2901143399      -25.7171917055       20.8280146694  MEMB      145             0.0000000000
     16520       145  POPC      H13C           35.1413797408      -24.7520197835       22.2735541084  MEMB      145             0.0000000000
     16521       145  POPC      C14            37.5413046594      -24.0826305262       21.7205172022  MEMB      145             0.0000000000
     16522       145  POPC      H14A           37.0881531952      -24.1672460894       22.6971923550  MEMB      145             0.0000000000
     16523       145  POPC      H14B           38.1048790702      -24.9857500563       21.5384212023  MEMB      145             0.0000000000
     16524       145  POPC      H14C           38.1389597036      -23.1835265363       21.6918753945  MEMB      145             0.0000000000
     16525       145  POPC      C15            36.1674379818      -22.4974454005       20.6613058494  MEMB      145             0.0000000000
     16526       145  POPC      H15A           37.0808956002      -21.9946311097       20.3799293662  MEMB      145             0.0000000000
     16527       145  POPC      H15B           35.8907614307      -22.0386176751       21.5990301018  MEMB      145             0.0000000000
     16528       145  POPC      H15C           35.5286619475      -22.2093645635       19.8394940523  MEMB      145             0.0000000000
     16529       145  POPC      C11            36.1094129031      -24.3204036916       18.0981035832  MEMB      145             0.0000000000
     16530       145  POPC      H11A           36.6278964782      -24.6242226703       17.1636574558  MEMB      145             0.0000000000
     16531       145  POPC      H11B           35.8274645490      -23.2458566444       18.1113225360  MEMB      145             0.0000000000
     16532       145  POPC      P              33.6320323453      -24.7694800685       17.4683996052  MEMB      145             0.0000000000
     16533       145  POPC      O13            33.4554603847      -23.3312848064       17.2428113152  MEMB      145             0.0000000000
     16534       145  POPC      O14            32.6093141772      -25.4220531632       18.2816427153  MEMB      145             0.0000000000
     16535       145  POPC      O12            34.9798806808      -25.0980178531       18.2053200560  MEMB      145             0.0000000000
     16536       145  POPC      O11            33.7658277091      -25.5681665231       16.0413721256  MEMB      145             0.0000000000
     16537       145  POPC      C1             34.3472687971      -26.8710439617       15.7539122710  MEMB      145             0.0000000000
     16538       145  POPC      HA             33.8958563878      -27.3074723780       14.8373543479  MEMB      145             0.0000000000
     16539       145  POPC      HB             34.0775914720      -27.5229960334       16.6121391893  MEMB      145             0.0000000000
     16540       145  POPC      C2             35.9232836002      -26.8015535183       15.5516275370  MEMB      145             0.0000000000
     16541       145  POPC      HS             36.3683486718      -26.6594852076       16.5596228798  MEMB      145             0.0000000000
     16542       145  POPC      O21            36.1708603707      -25.7255712244       14.6197863075  MEMB      145             0.0000000000
     16543       145  POPC      C21            37.4795167011      -25.2744862624       14.7475055075  MEMB      145             0.0000000000
     16544       145  POPC      O22            38.2920414097      -25.6554470369       15.5556619933  MEMB      145             0.0000000000
     16545       145  POPC      C22            37.6923658907      -24.1097370602       13.7481057743  MEMB      145             0.0000000000
     16546       145  POPC      H2R            38.7841448644      -23.9042985582       13.7597358003  MEMB      145             0.0000000000
     16547       145  POPC      H2S            37.1321140746      -23.2289216547       14.1283729336  MEMB      145             0.0000000000
     16548       145  POPC      C3             36.4691438302      -28.1620685702       14.9692288728  MEMB      145             0.0000000000
     16549       145  POPC      HX             36.4326949304      -28.9212035628       15.7796033723  MEMB      145             0.0000000000
     16550       145  POPC      HY             37.5452307527      -28.0461248288       14.7184009808  MEMB      145             0.0000000000
     16551       145  POPC      O31            35.8168760452      -28.8819920337       13.9084679802  MEMB      145             0.0000000000
     16552       145  POPC      C31            35.9657862352      -28.4598228641       12.7122473851  MEMB      145             0.0000000000
     16553       145  POPC      O32            36.7701071178      -27.5793614800       12.4010510661  MEMB      145             0.0000000000
     16554       145  POPC      C32            35.0933797121      -29.3039363789       11.7274253014  MEMB      145             0.0000000000
     16555       145  POPC      H2X            34.0643283300      -28.8923138087       11.6503464827  MEMB      145             0.0000000000
     16556       145  POPC      H2Y            35.1108179199      -30.3879304294       11.9702707682  MEMB      145             0.0000000000
     16557       145  POPC      C23            37.1167724484      -24.3671055989       12.3478202745  MEMB      145             0.0000000000
     16558       145  POPC      H3R            36.0695352318      -24.7349717694       12.3956691515  MEMB      145             0.0000000000
     16559       145  POPC      H3S            37.6340417714      -25.2524115365       11.9200505153  MEMB      145             0.0000000000
     16560       145  POPC      C24            37.4527904259      -23.3428122832       11.2711651270  MEMB      145             0.0000000000
     16561       145  POPC      H4R            37.1763593457      -22.3587905860       11.7066050908  MEMB      145             0.0000000000
     16562       145  POPC      H4S            36.6354945614      -23.5604147923       10.5507500707  MEMB      145             0.0000000000
     16563       145  POPC      C25            38.8228063160      -23.3991350261       10.6788924605  MEMB      145             0.0000000000
     16564       145  POPC      H5R            38.7279724790      -24.3468051710       10.1068362716  MEMB      145             0.0000000000
     16565       145  POPC      H5S            39.6125425975      -23.5969171756       11.4348819847  MEMB      145             0.0000000000
     16566       145  POPC      C26            39.1916554683      -22.1144549294        9.9959928730  MEMB      145             0.0000000000
     16567       145  POPC      H6R            40.2819860907      -22.2398190079        9.8234143478  MEMB      145             0.0000000000
     16568       145  POPC      H6S            39.0598629698      -21.2953824183       10.7349595899  MEMB      145             0.0000000000
     16569       145  POPC      C27            38.3914627370      -21.6495571018        8.8549122670  MEMB      145             0.0000000000
     16570       145  POPC      H7R            38.5107746537      -20.5484784131        8.7670975917  MEMB      145             0.0000000000
     16571       145  POPC      H7S            37.3156451249      -21.9136268274        8.9397923738  MEMB      145             0.0000000000
     16572       145  POPC      C28            38.8927908046      -22.2479736490        7.5436775953  MEMB      145             0.0000000000
     16573       145  POPC      H8R            39.9735263082      -22.0434548816        7.3871415941  MEMB      145             0.0000000000
     16574       145  POPC      H8S            38.3918612818      -21.7596237922        6.6805989074  MEMB      145             0.0000000000
     16575       145  POPC      C29            38.5610870400      -23.7185195526        7.4045821526  MEMB      145             0.0000000000
     16576       145  POPC      H91            39.0681791334      -24.4319739626        8.0707957167  MEMB      145             0.0000000000
     16577       145  POPC      C210           37.6766812857      -24.1995027515        6.5230521101  MEMB      145             0.0000000000
     16578       145  POPC      H101           37.4091203164      -25.2654412997        6.5698085660  MEMB      145             0.0000000000
     16579       145  POPC      C211           36.8250503868      -23.6190715450        5.4305088382  MEMB      145             0.0000000000
     16580       145  POPC      H11R           36.4611911974      -22.5810124370        5.5865886314  MEMB      145             0.0000000000
     16581       145  POPC      H11S           35.9960634929      -24.3500900419        5.3177555452  MEMB      145             0.0000000000
     16582       145  POPC      C212           37.7093616759      -23.5193680272        4.1611822959  MEMB      145             0.0000000000
     16583       145  POPC      H12R           38.0443281369      -24.5702469625        4.0278714378  MEMB      145             0.0000000000
     16584       145  POPC      H12S           38.6383167234      -22.9320194308        4.3236161079  MEMB      145             0.0000000000
     16585       145  POPC      C213           36.9227921731      -23.1646841444        2.8711749961  MEMB      145             0.0000000000
     16586       145  POPC      H13R           36.1237791201      -23.9352535487        2.9172380026  MEMB      145             0.0000000000
     16587       145  POPC      H13S           37.5547201236      -23.1757829946        1.9574660146  MEMB      145             0.0000000000
     16588       145  POPC      C214           36.2728593225      -21.7723967663        2.9629859315  MEMB      145             0.0000000000
     16589       145  POPC      H14R           37.0001156477      -21.0120209652        3.3197046338  MEMB      145             0.0000000000
     16590       145  POPC      H14S           35.5733962728      -21.8181892740        3.8249465313  MEMB      145             0.0000000000
     16591       145  POPC      C215           35.6152112501      -21.3626917263        1.6157135770  MEMB      145             0.0000000000
     16592       145  POPC      H15R           34.7076591257      -21.9960317939        1.5179845827  MEMB      145             0.0000000000
     16593       145  POPC      H15S           36.4266608137      -21.5840220099        0.8898453022  MEMB      145             0.0000000000
     16594       145  POPC      C216           35.1000267177      -19.9111456489        1.5648926132  MEMB      145             0.0000000000
     16595       145  POPC      H16R           35.9293913727      -19.1937953608        1.7434529468  MEMB      145             0.0000000000
     16596       145  POPC      H16S           34.4186151474      -19.8534228655        2.4404868056  MEMB      145             0.0000000000
     16597       145  POPC      C217           34.3899833208      -19.5014673417        0.3289612077  MEMB      145             0.0000000000
     16598       145  POPC      H17R           34.1890995142      -18.4118446456        0.4107497322  MEMB      145             0.0000000000
     16599       145  POPC      H17S           33.4380400031      -20.0736068052        0.3569184988  MEMB      145             0.0000000000
     16600       145  POPC      C218           35.2576836108      -19.7998573235       -0.9776281116  MEMB      145             0.0000000000
     16601       145  POPC      H18R           35.8438246496      -20.7410458727       -1.0477977884  MEMB      145             0.0000000000
     16602       145  POPC      H18S           36.0125229483      -18.9878057096       -1.0491132969  MEMB      145             0.0000000000
     16603       145  POPC      H18T           34.6495463803      -19.5521535423       -1.8738041760  MEMB      145             0.0000000000
     16604       145  POPC      C33            35.6767099737      -29.0801866974       10.2665217827  MEMB      145             0.0000000000
     16605       145  POPC      H3X            36.7009842537      -29.5073594234       10.2145001213  MEMB      145             0.0000000000
     16606       145  POPC      H3Y            35.5880379098      -28.0298594598        9.9154216577  MEMB      145             0.0000000000
     16607       145  POPC      C34            34.9103144110      -29.8818577330        9.2159034281  MEMB      145             0.0000000000
     16608       145  POPC      H4X            33.8328543175      -29.6285161011        9.3119179201  MEMB      145             0.0000000000
     16609       145  POPC      H4Y            34.9700225332      -30.9092307442        9.6345450100  MEMB      145             0.0000000000
     16610       145  POPC      C35            35.4135381388      -29.7863142696        7.7537430339  MEMB      145             0.0000000000
     16611       145  POPC      H5X            35.1073784711      -30.6196146171        7.0857618506  MEMB      145             0.0000000000
     16612       145  POPC      H5Y            36.5166177529      -29.6728259909        7.6855041644  MEMB      145             0.0000000000
     16613       145  POPC      C36            34.8768411854      -28.5077345895        7.1659122684  MEMB      145             0.0000000000
     16614       145  POPC      H6X            35.3828681512      -27.6610741267        7.6772089811  MEMB      145             0.0000000000
     16615       145  POPC      H6Y            33.7876194594      -28.3877829418        7.3490207792  MEMB      145             0.0000000000
     16616       145  POPC      C37            35.0805497775      -28.4263681125        5.6469472074  MEMB      145             0.0000000000
     16617       145  POPC      H7X            34.5281903649      -29.2504263916        5.1467997154  MEMB      145             0.0000000000
     16618       145  POPC      H7Y            36.1430336089      -28.5268695519        5.3381615157  MEMB      145             0.0000000000
     16619       145  POPC      C38            34.5708291150      -27.1705210204        4.9697246087  MEMB      145             0.0000000000
     16620       145  POPC      H8X            35.2149929013      -26.3599827777        5.3727149968  MEMB      145             0.0000000000
     16621       145  POPC      H8Y            33.5324923904      -26.9179582777        5.2736815093  MEMB      145             0.0000000000
     16622       145  POPC      C39            34.6625200921      -27.3820463546        3.4926482242  MEMB      145             0.0000000000
     16623       145  POPC      H9X            34.1181292726      -28.3193931547        3.2490471117  MEMB      145             0.0000000000
     16624       145  POPC      H9Y            35.7539156364      -27.3496162264        3.2874040125  MEMB      145             0.0000000000
     16625       145  POPC      C310           34.1288912082      -26.2360463954        2.6392431268  MEMB      145             0.0000000000
     16626       145  POPC      H10X           34.3953147321      -25.2908246529        3.1587578321  MEMB      145             0.0000000000
     16627       145  POPC      H10Y           33.0299158844      -26.3970161793        2.6134952494  MEMB      145             0.0000000000
     16628       145  POPC      C311           34.6520873298      -26.1753389425        1.2128992774  MEMB      145             0.0000000000
     16629       145  POPC      H11X           35.7319407194      -26.4048051037        1.0880677412  MEMB      145             0.0000000000
     16630       145  POPC      H11Y           34.4238526828      -25.1780238677        0.7797800943  MEMB      145             0.0000000000
     16631       145  POPC      C312           33.9600043620      -27.1860384229        0.3124540286  MEMB      145             0.0000000000
     16632       145  POPC      H12X           32.9185398783      -27.0589674721        0.6778651092  MEMB      145             0.0000000000
     16633       145  POPC      H12Y           34.2705269001      -28.2431530419        0.4552999242  MEMB      145             0.0000000000
     16634       145  POPC      C313           33.9886921769      -26.9217747678       -1.2422080164  MEMB      145             0.0000000000
     16635       145  POPC      H13X           33.2657856107      -26.1003922046       -1.4347128390  MEMB      145             0.0000000000
     16636       145  POPC      H13Y           33.5616949901      -27.7943255863       -1.7813272912  MEMB      145             0.0000000000
     16637       145  POPC      C314           35.3504529355      -26.7140794681       -1.9444589341  MEMB      145             0.0000000000
     16638       145  POPC      H14X           35.8102710196      -25.8620154973       -1.3995964015  MEMB      145             0.0000000000
     16639       145  POPC      H14Y           35.0746402642      -26.2991356010       -2.9374699715  MEMB      145             0.0000000000
     16640       145  POPC      C315           36.2504333038      -28.0316844485       -1.9221991559  MEMB      145             0.0000000000
     16641       145  POPC      H15X           35.5031264320      -28.7677191229       -2.2884064299  MEMB      145             0.0000000000
     16642       145  POPC      H15Y           36.6539681612      -28.2547237283       -0.9113919369  MEMB      145             0.0000000000
     16643       145  POPC      C316           37.5710639371      -27.8067347917       -2.7560208127  MEMB      145             0.0000000000
     16644       145  POPC      H16X           38.2158445941      -28.5539880132       -2.2459327651  MEMB      145             0.0000000000
     16645       145  POPC      H16Y           37.9571486068      -26.7658633211       -2.7130507970  MEMB      145             0.0000000000
     16646       145  POPC      H16Z           37.3606439230      -28.1212353032       -3.8005944741  MEMB      145             0.0000000000
     16647       146  POPC      N              25.8447552267      -44.6252935736       20.1172876676  MEMB      146             0.0000000000
     16648       146  POPC      C12            26.3861816619      -45.9611857692       19.7265927064  MEMB      146             0.0000000000
     16649       146  POPC      H12A           26.0446400598      -46.1274304497       18.7155971103  MEMB      146             0.0000000000
     16650       146  POPC      H12B           25.8265242208      -46.6854966603       20.2997920556  MEMB      146             0.0000000000
     16651       146  POPC      C13            26.1916681008      -44.4073852017       21.5781764751  MEMB      146             0.0000000000
     16652       146  POPC      H13A           27.2270980958      -44.7075880039       21.6426983529  MEMB      146             0.0000000000
     16653       146  POPC      H13B           26.0084029922      -43.3860464053       21.8776440672  MEMB      146             0.0000000000
     16654       146  POPC      H13C           25.6583244264      -45.1349173861       22.1720124997  MEMB      146             0.0000000000
     16655       146  POPC      C14            26.3235427210      -43.6050608402       19.0390267943  MEMB      146             0.0000000000
     16656       146  POPC      H14A           26.0618015789      -43.8968155757       18.0326616491  MEMB      146             0.0000000000
     16657       146  POPC      H14B           25.8485920469      -42.6519463146       19.2190116323  MEMB      146             0.0000000000
     16658       146  POPC      H14C           27.3819761662      -43.5337503070       19.2415936997  MEMB      146             0.0000000000
     16659       146  POPC      C15            24.3118790900      -44.5743113287       20.0746500368  MEMB      146             0.0000000000
     16660       146  POPC      H15A           24.0608301625      -43.5250352422       20.1235806579  MEMB      146             0.0000000000
     16661       146  POPC      H15B           23.9446605909      -45.1153779623       20.9341832932  MEMB      146             0.0000000000
     16662       146  POPC      H15C           24.0082332578      -44.9608344425       19.1129852945  MEMB      146             0.0000000000
     16663       146  POPC      C11            27.9160805223      -46.2069635981       19.9281463448  MEMB      146             0.0000000000
     16664       146  POPC      H11A           28.0684253282      -47.2775884585       19.6734418804  MEMB      146             0.0000000000
     16665       146  POPC      H11B           28.0395870697      -46.1013852423       21.0272006850  MEMB      146             0.0000000000
     16666       146  POPC      P              29.1638559364      -45.8013966925       17.6935886353  MEMB      146             0.0000000000
     16667       146  POPC      O13            27.9211208192      -45.6525732255       16.9559066200  MEMB      146             0.0000000000
     16668       146  POPC      O14            29.7672193626      -47.1615066038       17.6301608950  MEMB      146             0.0000000000
     16669       146  POPC      O12            28.9003625457      -45.4229686646       19.1854110589  MEMB      146             0.0000000000
     16670       146  POPC      O11            30.1513390742      -44.6209438039       17.0710527724  MEMB      146             0.0000000000
     16671       146  POPC      C1             31.2691252835      -44.2875577600       17.8758983776  MEMB      146             0.0000000000
     16672       146  POPC      HA             31.8447538390      -45.1707529980       18.2265248973  MEMB      146             0.0000000000
     16673       146  POPC      HB             30.9141044036      -43.6290442758       18.6972638338  MEMB      146             0.0000000000
     16674       146  POPC      C2             32.1870217459      -43.3473986993       17.1068287668  MEMB      146             0.0000000000
     16675       146  POPC      HS             32.9111634343      -42.9412212391       17.8450427848  MEMB      146             0.0000000000
     16676       146  POPC      O21            31.4338019926      -42.2927469568       16.4251958942  MEMB      146             0.0000000000
     16677       146  POPC      C21            30.8334352057      -41.3973851777       17.1086525759  MEMB      146             0.0000000000
     16678       146  POPC      O22            30.7775709084      -41.3882002366       18.3341767344  MEMB      146             0.0000000000
     16679       146  POPC      C22            29.9615871081      -40.4542091864       16.3142071595  MEMB      146             0.0000000000
     16680       146  POPC      H2R            30.3925515156      -39.4302056479       16.3113408289  MEMB      146             0.0000000000
     16681       146  POPC      H2S            29.0403799196      -40.4534868618       16.9352525763  MEMB      146             0.0000000000
     16682       146  POPC      C3             32.9511915091      -44.0923826498       15.9475420518  MEMB      146             0.0000000000
     16683       146  POPC      HX             33.4364947659      -44.9315310955       16.4903419089  MEMB      146             0.0000000000
     16684       146  POPC      HY             33.6881326559      -43.3937749835       15.4967798979  MEMB      146             0.0000000000
     16685       146  POPC      O31            32.1079996120      -44.4468128757       14.8907217257  MEMB      146             0.0000000000
     16686       146  POPC      C31            32.1144026332      -45.6732144671       14.3914210505  MEMB      146             0.0000000000
     16687       146  POPC      O32            33.0751413014      -46.4260153143       14.3590637236  MEMB      146             0.0000000000
     16688       146  POPC      C32            30.7724584812      -46.0645229822       13.9083426196  MEMB      146             0.0000000000
     16689       146  POPC      H2X            30.8199897562      -45.7348159243       12.8484581085  MEMB      146             0.0000000000
     16690       146  POPC      H2Y            30.0502987258      -45.4335178069       14.4692691843  MEMB      146             0.0000000000
     16691       146  POPC      C23            29.6296186880      -40.9318245534       14.8342670625  MEMB      146             0.0000000000
     16692       146  POPC      H3R            30.5692899051      -41.1186110077       14.2717285078  MEMB      146             0.0000000000
     16693       146  POPC      H3S            29.1172332080      -40.0465106703       14.4006755452  MEMB      146             0.0000000000
     16694       146  POPC      C24            28.7864000261      -42.1466191470       14.6385742184  MEMB      146             0.0000000000
     16695       146  POPC      H4R            27.7997468131      -41.8808327212       15.0746861358  MEMB      146             0.0000000000
     16696       146  POPC      H4S            29.1150308429      -43.1064414218       15.0914139561  MEMB      146             0.0000000000
     16697       146  POPC      C25            28.4094055146      -42.5371509283       13.1854705863  MEMB      146             0.0000000000
     16698       146  POPC      H5R            29.3499980006      -42.7083122742       12.6195104467  MEMB      146             0.0000000000
     16699       146  POPC      H5S            28.0054989209      -41.5869407209       12.7752499003  MEMB      146             0.0000000000
     16700       146  POPC      C26            27.2640524411      -43.5355734403       12.9607216519  MEMB      146             0.0000000000
     16701       146  POPC      H6R            26.4713478449      -43.1542236910       13.6393324252  MEMB      146             0.0000000000
     16702       146  POPC      H6S            27.4899446675      -44.5884521546       13.2341083030  MEMB      146             0.0000000000
     16703       146  POPC      C27            26.7795232316      -43.4235462597       11.4988417000  MEMB      146             0.0000000000
     16704       146  POPC      H7R            26.3452928425      -42.4178677698       11.3134359540  MEMB      146             0.0000000000
     16705       146  POPC      H7S            25.9383393739      -44.1206789124       11.2970078642  MEMB      146             0.0000000000
     16706       146  POPC      C28            27.9493882844      -43.6215997508       10.5279770231  MEMB      146             0.0000000000
     16707       146  POPC      H8R            28.3353470829      -44.6580976714       10.6329948406  MEMB      146             0.0000000000
     16708       146  POPC      H8S            28.9054105274      -43.0739448664       10.6708632624  MEMB      146             0.0000000000
     16709       146  POPC      C29            27.3886421300      -43.4541540962        9.1340911061  MEMB      146             0.0000000000
     16710       146  POPC      H91            26.6869278862      -44.2813027604        8.9512735866  MEMB      146             0.0000000000
     16711       146  POPC      C210           27.6209978702      -42.5304146503        8.1550263073  MEMB      146             0.0000000000
     16712       146  POPC      H101           26.9910475094      -42.4640113518        7.2557191462  MEMB      146             0.0000000000
     16713       146  POPC      C211           28.5703852123      -41.2830340870        8.0424852037  MEMB      146             0.0000000000
     16714       146  POPC      H11R           28.4661272251      -40.6628144661        8.9583338565  MEMB      146             0.0000000000
     16715       146  POPC      H11S           28.3138368123      -40.7227552055        7.1180435311  MEMB      146             0.0000000000
     16716       146  POPC      C212           30.0551030713      -41.7091571536        8.0547006965  MEMB      146             0.0000000000
     16717       146  POPC      H12R           30.3138453205      -42.3975297448        8.8874768203  MEMB      146             0.0000000000
     16718       146  POPC      H12S           30.6251929784      -40.7620944197        8.1660113576  MEMB      146             0.0000000000
     16719       146  POPC      C213           30.4545048924      -42.5282007816        6.8072948647  MEMB      146             0.0000000000
     16720       146  POPC      H13R           30.0485812377      -42.1002848071        5.8657881370  MEMB      146             0.0000000000
     16721       146  POPC      H13S           29.8731544812      -43.4701825088        6.9022838682  MEMB      146             0.0000000000
     16722       146  POPC      C214           31.9188048595      -42.8497216096        6.4350159080  MEMB      146             0.0000000000
     16723       146  POPC      H14R           32.3811669621      -43.4411956140        7.2539792348  MEMB      146             0.0000000000
     16724       146  POPC      H14S           32.6641109789      -42.0295404508        6.3566446550  MEMB      146             0.0000000000
     16725       146  POPC      C215           32.0617558014      -43.6441113773        5.0706978724  MEMB      146             0.0000000000
     16726       146  POPC      H15R           31.2901977135      -43.2118320249        4.3982744009  MEMB      146             0.0000000000
     16727       146  POPC      H15S           31.6534821899      -44.6683980067        5.2066055751  MEMB      146             0.0000000000
     16728       146  POPC      C216           33.4449128355      -43.7300682793        4.4843083888  MEMB      146             0.0000000000
     16729       146  POPC      H16R           33.3448042200      -44.3066940091        3.5399551751  MEMB      146             0.0000000000
     16730       146  POPC      H16S           34.1737536644      -44.4284510975        4.9483918195  MEMB      146             0.0000000000
     16731       146  POPC      C217           34.2004010124      -42.4487572211        4.2914659504  MEMB      146             0.0000000000
     16732       146  POPC      H17R           35.0400018709      -42.7916653508        3.6497461500  MEMB      146             0.0000000000
     16733       146  POPC      H17S           34.7030486678      -42.1464317776        5.2350049635  MEMB      146             0.0000000000
     16734       146  POPC      C218           33.6237005646      -41.2510275894        3.5633079981  MEMB      146             0.0000000000
     16735       146  POPC      H18R           34.4850826078      -40.6943326155        3.1361865296  MEMB      146             0.0000000000
     16736       146  POPC      H18S           33.1757441768      -40.5489822079        4.2986912505  MEMB      146             0.0000000000
     16737       146  POPC      H18T           32.8962679412      -41.6260897280        2.8119822154  MEMB      146             0.0000000000
     16738       146  POPC      C33            30.3367268105      -47.5210962300       14.1966710566  MEMB      146             0.0000000000
     16739       146  POPC      H3X            30.3490459816      -47.6003432371       15.3047727901  MEMB      146             0.0000000000
     16740       146  POPC      H3Y            31.0874020009      -48.2297312428       13.7860081329  MEMB      146             0.0000000000
     16741       146  POPC      C34            28.9216568127      -47.8767571876       13.7585723103  MEMB      146             0.0000000000
     16742       146  POPC      H4X            28.2110005303      -47.2558967687       14.3449351127  MEMB      146             0.0000000000
     16743       146  POPC      H4Y            28.7564460553      -48.9206067628       14.1012161493  MEMB      146             0.0000000000
     16744       146  POPC      C35            28.8055834494      -47.7588140993       12.2190209518  MEMB      146             0.0000000000
     16745       146  POPC      H5X            29.4106237389      -48.6188726948       11.8604870570  MEMB      146             0.0000000000
     16746       146  POPC      H5Y            29.3358330387      -46.8332203547       11.9084847553  MEMB      146             0.0000000000
     16747       146  POPC      C36            27.3964053425      -47.8412990367       11.5907725708  MEMB      146             0.0000000000
     16748       146  POPC      H6X            27.2756740727      -46.9536681195       10.9336151397  MEMB      146             0.0000000000
     16749       146  POPC      H6Y            26.8369753097      -47.7055623803       12.5410012344  MEMB      146             0.0000000000
     16750       146  POPC      C37            26.9489688203      -49.1292276922       10.8835147238  MEMB      146             0.0000000000
     16751       146  POPC      H7X            25.8671632281      -49.0144902167       10.6580083645  MEMB      146             0.0000000000
     16752       146  POPC      H7Y            26.9066761220      -49.9365528959       11.6455896520  MEMB      146             0.0000000000
     16753       146  POPC      C38            27.7691555891      -49.6860243162        9.7053908765  MEMB      146             0.0000000000
     16754       146  POPC      H8X            27.2438813484      -50.4534683041        9.0975765706  MEMB      146             0.0000000000
     16755       146  POPC      H8Y            28.7361781125      -50.0663519443       10.0985053107  MEMB      146             0.0000000000
     16756       146  POPC      C39            28.3902345831      -48.6924134716        8.7593324879  MEMB      146             0.0000000000
     16757       146  POPC      H9X            29.1652948711      -49.1908423124        8.1387104226  MEMB      146             0.0000000000
     16758       146  POPC      H9Y            28.9839963346      -47.8874492570        9.2428617341  MEMB      146             0.0000000000
     16759       146  POPC      C310           27.3522206003      -47.9646511960        7.8969409671  MEMB      146             0.0000000000
     16760       146  POPC      H10X           26.6546733257      -47.4086772709        8.5592410345  MEMB      146             0.0000000000
     16761       146  POPC      H10Y           26.8094271495      -48.7334628452        7.3064968679  MEMB      146             0.0000000000
     16762       146  POPC      C311           28.0326541774      -47.0064520660        6.9656419657  MEMB      146             0.0000000000
     16763       146  POPC      H11X           28.6202225531      -47.5990199088        6.2321932760  MEMB      146             0.0000000000
     16764       146  POPC      H11Y           28.8264787947      -46.4155288698        7.4705905489  MEMB      146             0.0000000000
     16765       146  POPC      C312           27.1174407276      -46.1238476743        6.1596857309  MEMB      146             0.0000000000
     16766       146  POPC      H12X           26.5625162232      -45.3817488732        6.7726045198  MEMB      146             0.0000000000
     16767       146  POPC      H12Y           26.2453165515      -46.6884041125        5.7659898849  MEMB      146             0.0000000000
     16768       146  POPC      C313           27.8544704419      -45.4784252443        4.9967725930  MEMB      146             0.0000000000
     16769       146  POPC      H13X           27.9756662160      -46.3330718100        4.2973360186  MEMB      146             0.0000000000
     16770       146  POPC      H13Y           28.8912319570      -45.1096743585        5.1499696951  MEMB      146             0.0000000000
     16771       146  POPC      C314           27.1065390362      -44.3841905825        4.4119040600  MEMB      146             0.0000000000
     16772       146  POPC      H14X           26.9349052986      -43.6316675490        5.2110115770  MEMB      146             0.0000000000
     16773       146  POPC      H14Y           26.1501558343      -44.7748674786        4.0032188308  MEMB      146             0.0000000000
     16774       146  POPC      C315           27.9924471054      -43.7339321208        3.3130644069  MEMB      146             0.0000000000
     16775       146  POPC      H15X           28.8660611363      -43.2424945362        3.7922392423  MEMB      146             0.0000000000
     16776       146  POPC      H15Y           27.3954390651      -42.8331992327        3.0550275556  MEMB      146             0.0000000000
     16777       146  POPC      C316           28.2316220287      -44.6063210854        2.0076051400  MEMB      146             0.0000000000
     16778       146  POPC      H16X           28.5383890878      -43.9870568604        1.1377045878  MEMB      146             0.0000000000
     16779       146  POPC      H16Y           27.2566961397      -45.0522842165        1.7161305597  MEMB      146             0.0000000000
     16780       146  POPC      H16Z           29.0083015852      -45.3792470448        2.1911139430  MEMB      146             0.0000000000
     16781       147  POPC      N             -38.8852021494      -29.3933748309       21.1790640879  MEMB      147             0.0000000000
     16782       147  POPC      C12           -39.7683891209      -29.2508588103       19.8954147385  MEMB      147             0.0000000000
     16783       147  POPC      H12A          -39.4692082235      -28.3007826886       19.4779867621  MEMB      147             0.0000000000
     16784       147  POPC      H12B          -40.7774664065      -29.3386577763       20.2701871231  MEMB      147             0.0000000000
     16785       147  POPC      C13           -39.1507090288      -28.2028425680       22.0038650019  MEMB      147             0.0000000000
     16786       147  POPC      H13A          -38.4680485093      -28.2580963894       22.8389229764  MEMB      147             0.0000000000
     16787       147  POPC      H13B          -39.0026264577      -27.3385414935       21.3734245876  MEMB      147             0.0000000000
     16788       147  POPC      H13C          -40.1200452229      -28.2347154215       22.4790191398  MEMB      147             0.0000000000
     16789       147  POPC      C14           -39.1302454538      -30.6941650215       21.8929888680  MEMB      147             0.0000000000
     16790       147  POPC      H14A          -40.1540084403      -30.9015449605       22.1674026800  MEMB      147             0.0000000000
     16791       147  POPC      H14B          -38.6209802226      -31.4663260115       21.3354798770  MEMB      147             0.0000000000
     16792       147  POPC      H14C          -38.7602879636      -30.5377932087       22.8955254280  MEMB      147             0.0000000000
     16793       147  POPC      C15           -37.3959741903      -29.3555192852       20.8740471831  MEMB      147             0.0000000000
     16794       147  POPC      H15A          -37.1487145856      -28.4162153800       20.4018492692  MEMB      147             0.0000000000
     16795       147  POPC      H15B          -37.0813813174      -30.1811595081       20.2529598047  MEMB      147             0.0000000000
     16796       147  POPC      H15C          -36.8174008386      -29.4790991748       21.7775852372  MEMB      147             0.0000000000
     16797       147  POPC      C11           -39.6020355768      -30.3514203085       18.7977172275  MEMB      147             0.0000000000
     16798       147  POPC      H11A          -40.2865327013      -29.9202904061       18.0361979382  MEMB      147             0.0000000000
     16799       147  POPC      H11B          -39.8688748112      -31.3416062667       19.2250922781  MEMB      147             0.0000000000
     16800       147  POPC      P             -37.9174670156      -30.3285547971       16.8124478962  MEMB      147             0.0000000000
     16801       147  POPC      O13           -38.9474914280      -31.2159550231       16.1582486296  MEMB      147             0.0000000000
     16802       147  POPC      O14           -36.4669256942      -30.6005513025       16.5727981565  MEMB      147             0.0000000000
     16803       147  POPC      O12           -38.2613630926      -30.3678754231       18.3892431797  MEMB      147             0.0000000000
     16804       147  POPC      O11           -38.1927969432      -28.7746715002       16.4241650301  MEMB      147             0.0000000000
     16805       147  POPC      C1            -37.6899820049      -27.6804775556       17.1542330192  MEMB      147             0.0000000000
     16806       147  POPC      HA            -36.9637422378      -28.0360319499       17.9161238779  MEMB      147             0.0000000000
     16807       147  POPC      HB            -38.5579267236      -27.2337751501       17.6847516111  MEMB      147             0.0000000000
     16808       147  POPC      C2            -36.9113318435      -26.7615620275       16.1482036009  MEMB      147             0.0000000000
     16809       147  POPC      HS            -36.7755840409      -25.7399173431       16.5630956948  MEMB      147             0.0000000000
     16810       147  POPC      O21           -37.6328962114      -26.7466330629       14.8724766652  MEMB      147             0.0000000000
     16811       147  POPC      C21           -38.5782666916      -25.8588171195       14.6212113921  MEMB      147             0.0000000000
     16812       147  POPC      O22           -38.7897427791      -24.8406960794       15.1654401671  MEMB      147             0.0000000000
     16813       147  POPC      C22           -39.3662100797      -26.3038851284       13.3011854576  MEMB      147             0.0000000000
     16814       147  POPC      H2R           -38.5240012063      -26.6611597592       12.6708199307  MEMB      147             0.0000000000
     16815       147  POPC      H2S           -39.8305507928      -25.3935609152       12.8652742670  MEMB      147             0.0000000000
     16816       147  POPC      C3            -35.4875677568      -27.2729308786       15.8310537377  MEMB      147             0.0000000000
     16817       147  POPC      HX            -35.3967834383      -28.3780454557       15.7617646441  MEMB      147             0.0000000000
     16818       147  POPC      HY            -35.0435728300      -27.1651228552       16.8437566426  MEMB      147             0.0000000000
     16819       147  POPC      O31           -34.9421019211      -26.4588941929       14.7649588550  MEMB      147             0.0000000000
     16820       147  POPC      C31           -35.0481967392      -26.8766612392       13.5261496862  MEMB      147             0.0000000000
     16821       147  POPC      O32           -35.3090692052      -27.9943965709       13.1135739422  MEMB      147             0.0000000000
     16822       147  POPC      C32           -34.7610493743      -25.6598247326       12.6511308476  MEMB      147             0.0000000000
     16823       147  POPC      H2X           -33.9479447513      -25.0880208558       13.1473392091  MEMB      147             0.0000000000
     16824       147  POPC      H2Y           -35.6607961011      -25.0164587236       12.5469339120  MEMB      147             0.0000000000
     16825       147  POPC      C23           -40.6048648920      -27.3031957668       13.5860971413  MEMB      147             0.0000000000
     16826       147  POPC      H3R           -41.3754715267      -26.9063915059       14.2811027368  MEMB      147             0.0000000000
     16827       147  POPC      H3S           -40.2787996724      -28.1847927931       14.1783718166  MEMB      147             0.0000000000
     16828       147  POPC      C24           -41.1926714468      -27.8997447210       12.2721631661  MEMB      147             0.0000000000
     16829       147  POPC      H4R           -41.5824541798      -27.0947959054       11.6130364981  MEMB      147             0.0000000000
     16830       147  POPC      H4S           -42.0129413814      -28.5952666887       12.5509597378  MEMB      147             0.0000000000
     16831       147  POPC      C25           -40.1820913208      -28.6855773518       11.4164410805  MEMB      147             0.0000000000
     16832       147  POPC      H5R           -39.3502426696      -28.0168256851       11.1080264297  MEMB      147             0.0000000000
     16833       147  POPC      H5S           -40.7005814466      -29.0160341351       10.4910832746  MEMB      147             0.0000000000
     16834       147  POPC      C26           -39.5948015712      -29.9411748587       12.0473333212  MEMB      147             0.0000000000
     16835       147  POPC      H6R           -40.4530002490      -30.5218248434       12.4481588076  MEMB      147             0.0000000000
     16836       147  POPC      H6S           -38.9067266059      -29.7964730281       12.9075280091  MEMB      147             0.0000000000
     16837       147  POPC      C27           -38.6921416258      -30.9289010075       11.2093971632  MEMB      147             0.0000000000
     16838       147  POPC      H7R           -39.3835840903      -31.3404715163       10.4433433212  MEMB      147             0.0000000000
     16839       147  POPC      H7S           -38.3731432888      -31.7745973414       11.8554302376  MEMB      147             0.0000000000
     16840       147  POPC      C28           -37.5034827165      -30.1594902112       10.5745029674  MEMB      147             0.0000000000
     16841       147  POPC      H8R           -36.9939872970      -29.7750386594       11.4838612029  MEMB      147             0.0000000000
     16842       147  POPC      H8S           -37.7950730584      -29.2282863909       10.0433202327  MEMB      147             0.0000000000
     16843       147  POPC      C29           -36.4632779655      -30.9478101373        9.7863247067  MEMB      147             0.0000000000
     16844       147  POPC      H91           -35.6567083007      -31.3029279581       10.4446080065  MEMB      147             0.0000000000
     16845       147  POPC      C210          -36.3319334037      -31.3030832325        8.4821753821  MEMB      147             0.0000000000
     16846       147  POPC      H101          -35.4832115125      -31.8572493957        8.0548915867  MEMB      147             0.0000000000
     16847       147  POPC      C211          -37.3848152647      -30.8411928920        7.5011315121  MEMB      147             0.0000000000
     16848       147  POPC      H11R          -36.7309886228      -30.3093963619        6.7772363082  MEMB      147             0.0000000000
     16849       147  POPC      H11S          -38.0592856092      -30.0268153259        7.8420136505  MEMB      147             0.0000000000
     16850       147  POPC      C212          -38.1344340955      -32.1114274408        6.9620392226  MEMB      147             0.0000000000
     16851       147  POPC      H12R          -38.5256982292      -32.6763836272        7.8349989369  MEMB      147             0.0000000000
     16852       147  POPC      H12S          -37.4180010831      -32.7879248499        6.4488180343  MEMB      147             0.0000000000
     16853       147  POPC      C213          -39.3373155009      -31.7918096980        6.0743306854  MEMB      147             0.0000000000
     16854       147  POPC      H13R          -40.1909648630      -31.2453590562        6.5292980426  MEMB      147             0.0000000000
     16855       147  POPC      H13S          -39.8142962293      -32.7681226229        5.8427626700  MEMB      147             0.0000000000
     16856       147  POPC      C214          -39.0397324769      -31.1806198114        4.7270542694  MEMB      147             0.0000000000
     16857       147  POPC      H14R          -38.3590659927      -30.3217755315        4.9098124305  MEMB      147             0.0000000000
     16858       147  POPC      H14S          -39.9702611145      -30.6605640246        4.4140374986  MEMB      147             0.0000000000
     16859       147  POPC      C215          -38.5309780902      -32.2265230004        3.6965785758  MEMB      147             0.0000000000
     16860       147  POPC      H15R          -39.3669532199      -32.8637381791        3.3368244644  MEMB      147             0.0000000000
     16861       147  POPC      H15S          -37.6939627767      -32.8419576372        4.0902368650  MEMB      147             0.0000000000
     16862       147  POPC      C216          -38.0393689531      -31.4611658517        2.4328256578  MEMB      147             0.0000000000
     16863       147  POPC      H16R          -38.8373558513      -30.7331671195        2.1729100111  MEMB      147             0.0000000000
     16864       147  POPC      H16S          -37.9952440725      -32.2242365540        1.6265392029  MEMB      147             0.0000000000
     16865       147  POPC      C217          -36.7223952322      -30.6964435058        2.5885590897  MEMB      147             0.0000000000
     16866       147  POPC      H17R          -36.9372508222      -29.9300277195        3.3636496567  MEMB      147             0.0000000000
     16867       147  POPC      H17S          -36.5293030292      -30.0100291791        1.7365780996  MEMB      147             0.0000000000
     16868       147  POPC      C218          -35.5147353651      -31.4287133492        3.0340243577  MEMB      147             0.0000000000
     16869       147  POPC      H18R          -35.6845690454      -32.0605970743        3.9319110880  MEMB      147             0.0000000000
     16870       147  POPC      H18S          -34.7914138393      -30.6130670252        3.2481462358  MEMB      147             0.0000000000
     16871       147  POPC      H18T          -35.1585819090      -32.1205329958        2.2410159236  MEMB      147             0.0000000000
     16872       147  POPC      C33           -34.3146508383      -26.1836204864       11.2575540266  MEMB      147             0.0000000000
     16873       147  POPC      H3X           -33.6116702259      -27.0357783425       11.3757346629  MEMB      147             0.0000000000
     16874       147  POPC      H3Y           -33.6737331825      -25.3812070832       10.8336700194  MEMB      147             0.0000000000
     16875       147  POPC      C34           -35.3654055040      -26.5436098711       10.1971998414  MEMB      147             0.0000000000
     16876       147  POPC      H4X           -36.0446917256      -25.6814118601       10.0254280681  MEMB      147             0.0000000000
     16877       147  POPC      H4Y           -35.9351446915      -27.4265062645       10.5580494040  MEMB      147             0.0000000000
     16878       147  POPC      C35           -34.7058591687      -26.8919908746        8.8674996566  MEMB      147             0.0000000000
     16879       147  POPC      H5X           -34.1149328784      -27.8151166417        9.0490645072  MEMB      147             0.0000000000
     16880       147  POPC      H5Y           -33.9388740448      -26.1248212751        8.6276972410  MEMB      147             0.0000000000
     16881       147  POPC      C36           -35.6214183323      -26.9226404033        7.6663562144  MEMB      147             0.0000000000
     16882       147  POPC      H6X           -36.5857155871      -27.4650655554        7.7674835068  MEMB      147             0.0000000000
     16883       147  POPC      H6Y           -35.0685891845      -27.3841741812        6.8203735843  MEMB      147             0.0000000000
     16884       147  POPC      C37           -35.9528917422      -25.5076776436        7.2867306975  MEMB      147             0.0000000000
     16885       147  POPC      H7X           -35.0079617718      -24.9234236104        7.2954356664  MEMB      147             0.0000000000
     16886       147  POPC      H7Y           -36.6756824490      -25.1567674565        8.0540353654  MEMB      147             0.0000000000
     16887       147  POPC      C38           -36.5836636457      -25.4812469309        5.8446197907  MEMB      147             0.0000000000
     16888       147  POPC      H8X           -35.8247886899      -26.0041086619        5.2240994158  MEMB      147             0.0000000000
     16889       147  POPC      H8Y           -36.5930040395      -24.4368240782        5.4659191723  MEMB      147             0.0000000000
     16890       147  POPC      C39           -37.8887272269      -26.1466498694        5.6033960946  MEMB      147             0.0000000000
     16891       147  POPC      H9X           -38.7444382575      -25.5522839900        5.9891526769  MEMB      147             0.0000000000
     16892       147  POPC      H9Y           -37.8878650880      -27.0641329688        6.2299310902  MEMB      147             0.0000000000
     16893       147  POPC      C310          -38.2000236144      -26.4582731653        4.1530927016  MEMB      147             0.0000000000
     16894       147  POPC      H10X          -37.8444078666      -27.4828887826        3.9122152602  MEMB      147             0.0000000000
     16895       147  POPC      H10Y          -37.7558975426      -25.6768643719        3.5000436925  MEMB      147             0.0000000000
     16896       147  POPC      C311          -39.7146153882      -26.6143998834        3.8723438657  MEMB      147             0.0000000000
     16897       147  POPC      H11X          -40.1864588094      -25.6923369292        4.2741946931  MEMB      147             0.0000000000
     16898       147  POPC      H11Y          -40.0847859817      -27.4821479467        4.4591215513  MEMB      147             0.0000000000
     16899       147  POPC      C312          -40.1302964626      -26.8359329745        2.4449411924  MEMB      147             0.0000000000
     16900       147  POPC      H12X          -39.4117593461      -26.2914017542        1.7957017316  MEMB      147             0.0000000000
     16901       147  POPC      H12Y          -41.1564797773      -26.4682402810        2.2302993241  MEMB      147             0.0000000000
     16902       147  POPC      C313          -40.0042978256      -28.3025736547        2.0006657760  MEMB      147             0.0000000000
     16903       147  POPC      H13X          -40.7167144058      -28.9829990693        2.5142855473  MEMB      147             0.0000000000
     16904       147  POPC      H13Y          -38.9523174491      -28.6249090702        2.1548028373  MEMB      147             0.0000000000
     16905       147  POPC      C314          -40.2937242585      -28.3867931420        0.4466066124  MEMB      147             0.0000000000
     16906       147  POPC      H14X          -41.2745814048      -27.9049847453        0.2463544579  MEMB      147             0.0000000000
     16907       147  POPC      H14Y          -40.3074028384      -29.4585286171        0.1541748359  MEMB      147             0.0000000000
     16908       147  POPC      C315          -39.2589455962      -27.7540908720       -0.5139451270  MEMB      147             0.0000000000
     16909       147  POPC      H15X          -39.2188663956      -26.6683790015       -0.2816861713  MEMB      147             0.0000000000
     16910       147  POPC      H15Y          -39.6054948450      -27.8466834058       -1.5654438558  MEMB      147             0.0000000000
     16911       147  POPC      C316          -37.8388995858      -28.3968306244       -0.4529511456  MEMB      147             0.0000000000
     16912       147  POPC      H16X          -37.7596548454      -29.4891783118       -0.6395448075  MEMB      147             0.0000000000
     16913       147  POPC      H16Y          -37.4584521369      -28.1076214133        0.5500149418  MEMB      147             0.0000000000
     16914       147  POPC      H16Z          -37.2528255537      -27.8289940846       -1.2068738695  MEMB      147             0.0000000000
     16915       148  POPC      N              11.9853189942       49.8410597402       20.2488105792  MEMB      148             0.0000000000
     16916       148  POPC      C12            11.7316072067       49.0334800402       18.9487303873  MEMB      148             0.0000000000
     16917       148  POPC      H12A           11.1021151620       49.5912638642       18.2712226159  MEMB      148             0.0000000000
     16918       148  POPC      H12B           11.1271497206       48.1651506901       19.1656065828  MEMB      148             0.0000000000
     16919       148  POPC      C13            12.5685693119       48.9364377134       21.2870236146  MEMB      148             0.0000000000
     16920       148  POPC      H13A           13.5508399284       48.7250243262       20.8909823500  MEMB      148             0.0000000000
     16921       148  POPC      H13B           12.6634831191       49.4495113054       22.2326169897  MEMB      148             0.0000000000
     16922       148  POPC      H13C           12.0073290255       48.0308422921       21.4639595874  MEMB      148             0.0000000000
     16923       148  POPC      C14            12.9297930145       50.9820668987       20.0430194140  MEMB      148             0.0000000000
     16924       148  POPC      H14A           13.8848779667       50.6144470596       19.6979561810  MEMB      148             0.0000000000
     16925       148  POPC      H14B           12.6160312863       51.7567903320       19.3590917373  MEMB      148             0.0000000000
     16926       148  POPC      H14C           13.1038611302       51.5075085744       20.9703872354  MEMB      148             0.0000000000
     16927       148  POPC      C15            10.6214840445       50.3497585552       20.7699231419  MEMB      148             0.0000000000
     16928       148  POPC      H15A            9.9395230728       49.5197307603       20.8812016124  MEMB      148             0.0000000000
     16929       148  POPC      H15B           10.2018233678       50.9683077381       19.9903834113  MEMB      148             0.0000000000
     16930       148  POPC      H15C           10.8227425416       51.0672490663       21.5516535813  MEMB      148             0.0000000000
     16931       148  POPC      C11            12.9081211453       48.6850991698       17.9919169833  MEMB      148             0.0000000000
     16932       148  POPC      H11A           13.2636208582       49.5857885650       17.4472156222  MEMB      148             0.0000000000
     16933       148  POPC      H11B           12.4312914862       47.9855169240       17.2725150590  MEMB      148             0.0000000000
     16934       148  POPC      P              14.9867801785       47.0090253430       17.9380865031  MEMB      148             0.0000000000
     16935       148  POPC      O13            14.2604926798       46.1707218755       16.9623863999  MEMB      148             0.0000000000
     16936       148  POPC      O14            15.8348721752       46.3639418791       18.9481443476  MEMB      148             0.0000000000
     16937       148  POPC      O12            13.9697937596       47.9870670559       18.6927866492  MEMB      148             0.0000000000
     16938       148  POPC      O11            15.9207969451       47.9804415123       17.1691719469  MEMB      148             0.0000000000
     16939       148  POPC      C1             16.4680806429       49.1284863883       17.8894219251  MEMB      148             0.0000000000
     16940       148  POPC      HA             17.4616352123       48.8067172376       18.2684139057  MEMB      148             0.0000000000
     16941       148  POPC      HB             15.9482334219       49.5211961874       18.7893435728  MEMB      148             0.0000000000
     16942       148  POPC      C2             16.8350692193       50.3768783575       17.0090912683  MEMB      148             0.0000000000
     16943       148  POPC      HS             16.7848588466       51.2842836772       17.6481651132  MEMB      148             0.0000000000
     16944       148  POPC      O21            16.0096740780       50.4014032191       15.8139914401  MEMB      148             0.0000000000
     16945       148  POPC      C21            15.4030862862       51.5132190158       15.5093130247  MEMB      148             0.0000000000
     16946       148  POPC      O22            15.5465459434       52.5845088365       15.9856392751  MEMB      148             0.0000000000
     16947       148  POPC      C22            14.3291460518       51.1233538881       14.5028051127  MEMB      148             0.0000000000
     16948       148  POPC      H2R            13.2943221331       51.2566386799       14.8845062169  MEMB      148             0.0000000000
     16949       148  POPC      H2S            14.3717583101       50.0808752069       14.1210419210  MEMB      148             0.0000000000
     16950       148  POPC      C3             18.3800538251       50.2190719934       16.5053627676  MEMB      148             0.0000000000
     16951       148  POPC      HX             19.0558640645       50.4055032506       17.3672472340  MEMB      148             0.0000000000
     16952       148  POPC      HY             18.5842749631       51.0261649110       15.7696891037  MEMB      148             0.0000000000
     16953       148  POPC      O31            18.4758451125       48.8353242558       15.9618430149  MEMB      148             0.0000000000
     16954       148  POPC      C31            18.5765631667       48.7625680082       14.6691689711  MEMB      148             0.0000000000
     16955       148  POPC      O32            18.6461051363       49.7125580673       13.8536465234  MEMB      148             0.0000000000
     16956       148  POPC      C32            18.5052705065       47.2581062196       14.3447966153  MEMB      148             0.0000000000
     16957       148  POPC      H2X            18.4515581937       46.6918655030       15.2991588537  MEMB      148             0.0000000000
     16958       148  POPC      H2Y            19.3926242863       46.8587060390       13.8086959908  MEMB      148             0.0000000000
     16959       148  POPC      C23            14.3729811940       51.9923227656       13.2359324281  MEMB      148             0.0000000000
     16960       148  POPC      H3R            14.2773941502       53.0197573972       13.6477114985  MEMB      148             0.0000000000
     16961       148  POPC      H3S            13.4439211203       51.7147264787       12.6936145451  MEMB      148             0.0000000000
     16962       148  POPC      C24            15.6304016354       51.9367468604       12.4954982233  MEMB      148             0.0000000000
     16963       148  POPC      H4R            16.5197462490       51.9749408019       13.1602751096  MEMB      148             0.0000000000
     16964       148  POPC      H4S            15.8084259364       52.6646303072       11.6752458210  MEMB      148             0.0000000000
     16965       148  POPC      C25            15.7786553003       50.5400119118       11.9252064217  MEMB      148             0.0000000000
     16966       148  POPC      H5R            14.8068474387       50.3533784331       11.4201532873  MEMB      148             0.0000000000
     16967       148  POPC      H5S            15.9733014666       49.7506270921       12.6823756935  MEMB      148             0.0000000000
     16968       148  POPC      C26            16.8161771044       50.7374956776       10.8058415888  MEMB      148             0.0000000000
     16969       148  POPC      H6R            17.7736004945       51.0629175812       11.2660176669  MEMB      148             0.0000000000
     16970       148  POPC      H6S            16.3882758894       51.5256165029       10.1500315669  MEMB      148             0.0000000000
     16971       148  POPC      C27            17.0041971849       49.5495092366        9.9193058861  MEMB      148             0.0000000000
     16972       148  POPC      H7R            16.1012151447       49.2675105707        9.3367073243  MEMB      148             0.0000000000
     16973       148  POPC      H7S            17.2683200640       48.6824408306       10.5617638975  MEMB      148             0.0000000000
     16974       148  POPC      C28            18.1602949448       49.7840032712        8.9361768625  MEMB      148             0.0000000000
     16975       148  POPC      H8R            18.9631025745       50.0525794007        9.6556826859  MEMB      148             0.0000000000
     16976       148  POPC      H8S            18.0315040927       50.7018192216        8.3235205283  MEMB      148             0.0000000000
     16977       148  POPC      C29            18.5926682159       48.5223207693        8.1782543803  MEMB      148             0.0000000000
     16978       148  POPC      H91            19.4757658603       48.0061289845        8.5828335889  MEMB      148             0.0000000000
     16979       148  POPC      C210           18.0917092510       47.9661312089        7.0446944187  MEMB      148             0.0000000000
     16980       148  POPC      H101           18.3006729315       46.9316882753        6.7344331076  MEMB      148             0.0000000000
     16981       148  POPC      C211           16.9339571342       48.6680919104        6.2967044855  MEMB      148             0.0000000000
     16982       148  POPC      H11R           16.4674782011       49.4348852165        6.9514924025  MEMB      148             0.0000000000
     16983       148  POPC      H11S           16.1202189608       47.9120837717        6.2721486797  MEMB      148             0.0000000000
     16984       148  POPC      C212           17.1994505947       49.2631553523        4.8880854064  MEMB      148             0.0000000000
     16985       148  POPC      H12R           18.0299177225       49.9973264177        4.9631703092  MEMB      148             0.0000000000
     16986       148  POPC      H12S           16.2062250936       49.6524768462        4.5778391089  MEMB      148             0.0000000000
     16987       148  POPC      C213           17.4810411984       48.2102607402        3.7452828988  MEMB      148             0.0000000000
     16988       148  POPC      H13R           16.7184630986       47.4024426403        3.7602940939  MEMB      148             0.0000000000
     16989       148  POPC      H13S           18.4586046671       47.6934311141        3.8528828180  MEMB      148             0.0000000000
     16990       148  POPC      C214           17.3764977596       49.0699662547        2.4847375859  MEMB      148             0.0000000000
     16991       148  POPC      H14R           18.0952511105       49.9035938830        2.6356671499  MEMB      148             0.0000000000
     16992       148  POPC      H14S           16.3613872430       49.4988602809        2.3435940333  MEMB      148             0.0000000000
     16993       148  POPC      C215           17.8809015515       48.4519816412        1.1183338008  MEMB      148             0.0000000000
     16994       148  POPC      H15R           17.6538420538       49.1729840929        0.3041341067  MEMB      148             0.0000000000
     16995       148  POPC      H15S           17.3580694476       47.5059495752        0.8614478411  MEMB      148             0.0000000000
     16996       148  POPC      C216           19.3946076013       48.1344222422        1.1059506129  MEMB      148             0.0000000000
     16997       148  POPC      H16R           19.7302269817       47.1935534848        1.5922087256  MEMB      148             0.0000000000
     16998       148  POPC      H16S           19.8896820213       48.9946689172        1.6051482007  MEMB      148             0.0000000000
     16999       148  POPC      C217           19.8496921813       48.1643060878       -0.3628679034  MEMB      148             0.0000000000
     17000       148  POPC      H17R           20.9346596513       47.9353324285       -0.2940378703  MEMB      148             0.0000000000
     17001       148  POPC      H17S           19.7349830345       49.1501723989       -0.8620966454  MEMB      148             0.0000000000
     17002       148  POPC      C218           19.2655238542       47.1208954598       -1.3298469298  MEMB      148             0.0000000000
     17003       148  POPC      H18R           19.3676364928       46.0515603663       -1.0462695301  MEMB      148             0.0000000000
     17004       148  POPC      H18S           19.7958917728       47.1944647855       -2.3033038118  MEMB      148             0.0000000000
     17005       148  POPC      H18T           18.2303606230       47.4892648401       -1.4943526366  MEMB      148             0.0000000000
     17006       148  POPC      C33            17.2428928764       46.9811770680       13.5094911225  MEMB      148             0.0000000000
     17007       148  POPC      H3X            17.2698765390       45.9464638589       13.1058059929  MEMB      148             0.0000000000
     17008       148  POPC      H3Y            17.1859255649       47.7846688901       12.7443269139  MEMB      148             0.0000000000
     17009       148  POPC      C34            15.9218717059       47.0219313010       14.3401169793  MEMB      148             0.0000000000
     17010       148  POPC      H4X            15.7442725316       48.0269277950       14.7791634125  MEMB      148             0.0000000000
     17011       148  POPC      H4Y            16.1837322559       46.3351640622       15.1732440753  MEMB      148             0.0000000000
     17012       148  POPC      C35            14.7179551162       46.4621496485       13.6879443230  MEMB      148             0.0000000000
     17013       148  POPC      H5X            13.9715138099       46.1833975655       14.4621817046  MEMB      148             0.0000000000
     17014       148  POPC      H5Y            14.9720709419       45.6247120473       13.0035140780  MEMB      148             0.0000000000
     17015       148  POPC      C36            14.0261558740       47.4402438391       12.6946826633  MEMB      148             0.0000000000
     17016       148  POPC      H6X            14.8879377635       47.7039532320       12.0449822965  MEMB      148             0.0000000000
     17017       148  POPC      H6Y            13.7158159467       48.4566950629       13.0184686914  MEMB      148             0.0000000000
     17018       148  POPC      C37            12.9628372192       46.8116983515       11.8905209479  MEMB      148             0.0000000000
     17019       148  POPC      H7X            11.9860268761       46.7484173859       12.4160284306  MEMB      148             0.0000000000
     17020       148  POPC      H7Y            13.2947693169       45.7588162525       11.7656960330  MEMB      148             0.0000000000
     17021       148  POPC      C38            12.7157191135       47.2608769696       10.4537592858  MEMB      148             0.0000000000
     17022       148  POPC      H8X            12.3010632831       48.2890441606       10.3812762684  MEMB      148             0.0000000000
     17023       148  POPC      H8Y            11.8781420682       46.5823446850       10.1847242867  MEMB      148             0.0000000000
     17024       148  POPC      C39            13.7910679142       46.9058282406        9.3302457716  MEMB      148             0.0000000000
     17025       148  POPC      H9X            14.2900724128       45.9368035272        9.5454354918  MEMB      148             0.0000000000
     17026       148  POPC      H9Y            14.4723654556       47.7569988066        9.5439355783  MEMB      148             0.0000000000
     17027       148  POPC      C310           13.1242692985       46.8880860351        8.0041213528  MEMB      148             0.0000000000
     17028       148  POPC      H10X           12.2677337946       46.1812056948        7.9726894855  MEMB      148             0.0000000000
     17029       148  POPC      H10Y           13.9476386940       46.4926297959        7.3716671824  MEMB      148             0.0000000000
     17030       148  POPC      C311           12.6161334574       48.2310289584        7.5076477104  MEMB      148             0.0000000000
     17031       148  POPC      H11X           13.2561542151       49.0342642061        7.9313309821  MEMB      148             0.0000000000
     17032       148  POPC      H11Y           11.6549450788       48.4384757989        8.0247580278  MEMB      148             0.0000000000
     17033       148  POPC      C312           12.3747389611       48.3865876634        6.0423245155  MEMB      148             0.0000000000
     17034       148  POPC      H12X           11.7907973612       49.2882161835        5.7587776407  MEMB      148             0.0000000000
     17035       148  POPC      H12Y           11.7302889488       47.5471245008        5.7042313439  MEMB      148             0.0000000000
     17036       148  POPC      C313           13.6332021516       48.4938440126        5.2565823345  MEMB      148             0.0000000000
     17037       148  POPC      H13X           14.2178130001       47.5686397544        5.4477584689  MEMB      148             0.0000000000
     17038       148  POPC      H13Y           14.4382209468       49.1382647131        5.6700895402  MEMB      148             0.0000000000
     17039       148  POPC      C314           13.3348223029       48.5827573667        3.7555406970  MEMB      148             0.0000000000
     17040       148  POPC      H14X           14.1636290206       49.0375271686        3.1719439963  MEMB      148             0.0000000000
     17041       148  POPC      H14Y           12.4601989434       49.2651119617        3.6943248239  MEMB      148             0.0000000000
     17042       148  POPC      C315           12.9639301713       47.1760233959        3.1709601094  MEMB      148             0.0000000000
     17043       148  POPC      H15X           12.1809663586       46.6967502663        3.7967286832  MEMB      148             0.0000000000
     17044       148  POPC      H15Y           13.7935623141       46.4606301383        3.3560110985  MEMB      148             0.0000000000
     17045       148  POPC      C316           12.5942520896       47.2147031887        1.7028897809  MEMB      148             0.0000000000
     17046       148  POPC      H16X           12.5200709928       46.1726275865        1.3248723099  MEMB      148             0.0000000000
     17047       148  POPC      H16Y           13.4106629456       47.7059426644        1.1315068962  MEMB      148             0.0000000000
     17048       148  POPC      H16Z           11.6320942800       47.7180632598        1.4679388382  MEMB      148             0.0000000000
     17049       149  POPE      N              26.1734471360       50.1322141258       16.6455364802  MEMB      149             0.0000000000
     17050       149  POPE      HN1            26.7381223935       50.5453946104       15.8761055191  MEMB      149             0.0000000000
     17051       149  POPE      HN2            25.3278076940       49.6050552732       16.3478832390  MEMB      149             0.0000000000
     17052       149  POPE      HN3            25.7167523524       50.7352078087       17.3592790921  MEMB      149             0.0000000000
     17053       149  POPE      C12            26.9805390934       49.1160016044       17.3954301642  MEMB      149             0.0000000000
     17054       149  POPE      H12A           27.5415537873       49.7966441106       18.0709368415  MEMB      149             0.0000000000
     17055       149  POPE      H12B           27.6558929456       48.6165852383       16.6682428727  MEMB      149             0.0000000000
     17056       149  POPE      C11            26.1051555171       48.2073232391       18.2778542344  MEMB      149             0.0000000000
     17057       149  POPE      H11A           25.5524906701       47.4810928640       17.6442360057  MEMB      149             0.0000000000
     17058       149  POPE      H11B           25.3891043014       48.9353441940       18.7155494216  MEMB      149             0.0000000000
     17059       149  POPE      P              26.3283227216       46.4381669083       20.0239499436  MEMB      149             0.0000000000
     17060       149  POPE      O13            25.0103222944       46.7888532977       20.5991045398  MEMB      149             0.0000000000
     17061       149  POPE      O14            27.4031401527       45.8957983281       20.9034954369  MEMB      149             0.0000000000
     17062       149  POPE      O11            26.1425784506       45.2845553606       18.8982591845  MEMB      149             0.0000000000
     17063       149  POPE      O12            26.8752809868       47.6396790718       19.2563700176  MEMB      149             0.0000000000
     17064       149  POPE      C1             27.3107665235       44.9396781866       18.1428220167  MEMB      149             0.0000000000
     17065       149  POPE      HA             27.9180717731       44.1884507779       18.6916013149  MEMB      149             0.0000000000
     17066       149  POPE      HB             27.9088450575       45.8636529258       17.9915156127  MEMB      149             0.0000000000
     17067       149  POPE      C2             26.9436053200       44.3467047746       16.8492673261  MEMB      149             0.0000000000
     17068       149  POPE      HS             27.8865843913       44.1352101164       16.3011965364  MEMB      149             0.0000000000
     17069       149  POPE      O21            26.0891391116       45.2198636100       16.0784868031  MEMB      149             0.0000000000
     17070       149  POPE      C21            26.5634766915       45.7868728360       14.9611395529  MEMB      149             0.0000000000
     17071       149  POPE      O22            27.5548274741       45.4374470320       14.4108523087  MEMB      149             0.0000000000
     17072       149  POPE      C22            25.4366800513       46.7326005700       14.4632383738  MEMB      149             0.0000000000
     17073       149  POPE      H2R            25.4513101993       47.6620427677       15.0717156412  MEMB      149             0.0000000000
     17074       149  POPE      H2S            24.4741663418       46.1958123526       14.6037612316  MEMB      149             0.0000000000
     17075       149  POPE      C3             26.2555939747       42.9139679130       16.9850542269  MEMB      149             0.0000000000
     17076       149  POPE      HX             25.2606183779       42.8018959041       17.4664937733  MEMB      149             0.0000000000
     17077       149  POPE      HY             26.8346840717       42.3400685732       17.7397826086  MEMB      149             0.0000000000
     17078       149  POPE      O31            26.3003095613       42.1016119128       15.7574774241  MEMB      149             0.0000000000
     17079       149  POPE      C31            25.4700433625       42.4540369663       14.8274620893  MEMB      149             0.0000000000
     17080       149  POPE      O32            24.4760133649       43.1667362848       14.9749125691  MEMB      149             0.0000000000
     17081       149  POPE      C32            25.8767521747       41.7406220342       13.5674045203  MEMB      149             0.0000000000
     17082       149  POPE      H2X            25.5463375613       40.6934935452       13.3980835176  MEMB      149             0.0000000000
     17083       149  POPE      H2Y            26.9867790604       41.7842461241       13.5513269899  MEMB      149             0.0000000000
     17084       149  POPE      C23            25.7819217459       47.2018420643       13.0267058534  MEMB      149             0.0000000000
     17085       149  POPE      H3R            26.1255079288       46.2677818346       12.5329438155  MEMB      149             0.0000000000
     17086       149  POPE      H3S            26.6888334245       47.8426728490       13.0608875033  MEMB      149             0.0000000000
     17087       149  POPE      C24            24.6683499665       47.9631335284       12.2419480476  MEMB      149             0.0000000000
     17088       149  POPE      H4R            24.1279376985       48.8112243870       12.7141952035  MEMB      149             0.0000000000
     17089       149  POPE      H4S            23.9504373067       47.1257607985       12.1087972563  MEMB      149             0.0000000000
     17090       149  POPE      C25            25.1391310974       48.4331628216       10.8671458705  MEMB      149             0.0000000000
     17091       149  POPE      H5R            25.8361914764       47.6459033641       10.5084670561  MEMB      149             0.0000000000
     17092       149  POPE      H5S            25.6122622438       49.4382347138       10.8844279097  MEMB      149             0.0000000000
     17093       149  POPE      C26            24.0157762653       48.5176698158        9.8493843632  MEMB      149             0.0000000000
     17094       149  POPE      H6R            23.4424936693       47.5694779596        9.9306288658  MEMB      149             0.0000000000
     17095       149  POPE      H6S            24.3942456247       48.4424254965        8.8075492684  MEMB      149             0.0000000000
     17096       149  POPE      C27            23.1279532954       49.8244271456        9.8227567672  MEMB      149             0.0000000000
     17097       149  POPE      H7R            23.7280499541       50.7591885944        9.8434107462  MEMB      149             0.0000000000
     17098       149  POPE      H7S            22.6352098680       49.8461215646       10.8182735119  MEMB      149             0.0000000000
     17099       149  POPE      C28            22.0288838474       49.7962719096        8.6849486774  MEMB      149             0.0000000000
     17100       149  POPE      H8R            22.5165193027       49.5807944331        7.7102172207  MEMB      149             0.0000000000
     17101       149  POPE      H8S            21.6352277224       50.8348020042        8.6564669238  MEMB      149             0.0000000000
     17102       149  POPE      C29            20.8602687225       48.7703466974        8.7844703125  MEMB      149             0.0000000000
     17103       149  POPE      H91            20.0297267837       48.9603614250        9.4802394022  MEMB      149             0.0000000000
     17104       149  POPE      C210           20.8091674275       47.5236350818        8.1387613479  MEMB      149             0.0000000000
     17105       149  POPE      H101           19.9467287697       46.8420023210        8.0990607273  MEMB      149             0.0000000000
     17106       149  POPE      C211           21.8815152899       47.0988508499        7.2340264296  MEMB      149             0.0000000000
     17107       149  POPE      H11R           22.0926507773       46.0293594910        7.4483414129  MEMB      149             0.0000000000
     17108       149  POPE      H11S           22.8265768866       47.6201985369        7.4974203853  MEMB      149             0.0000000000
     17109       149  POPE      C212           21.4577744131       47.2325864558        5.7184360744  MEMB      149             0.0000000000
     17110       149  POPE      H12R           20.9979847665       48.2327258833        5.5679857563  MEMB      149             0.0000000000
     17111       149  POPE      H12S           20.8830321568       46.3519400956        5.3600305042  MEMB      149             0.0000000000
     17112       149  POPE      C213           22.6878626874       47.2977863112        4.7642694310  MEMB      149             0.0000000000
     17113       149  POPE      H13R           23.5609884107       46.6709618648        5.0454522266  MEMB      149             0.0000000000
     17114       149  POPE      H13S           23.1098200108       48.3209110724        4.8616830877  MEMB      149             0.0000000000
     17115       149  POPE      C214           22.2629360245       46.9914554336        3.3165848823  MEMB      149             0.0000000000
     17116       149  POPE      H14R           21.4308070394       47.6259573478        2.9433702298  MEMB      149             0.0000000000
     17117       149  POPE      H14S           21.9424248559       45.9339008706        3.2018155732  MEMB      149             0.0000000000
     17118       149  POPE      C215           23.4635992840       47.0674273740        2.3790513730  MEMB      149             0.0000000000
     17119       149  POPE      H15R           24.1284753445       46.1881118637        2.5171290080  MEMB      149             0.0000000000
     17120       149  POPE      H15S           23.9871529062       48.0241913233        2.5907484782  MEMB      149             0.0000000000
     17121       149  POPE      C216           23.0083774469       47.1846286508        0.9039655788  MEMB      149             0.0000000000
     17122       149  POPE      H16R           22.4777316912       48.1479130560        0.7464243342  MEMB      149             0.0000000000
     17123       149  POPE      H16S           22.2549865246       46.3939836745        0.6999951661  MEMB      149             0.0000000000
     17124       149  POPE      C217           24.1250903058       47.0586945022       -0.1995955298  MEMB      149             0.0000000000
     17125       149  POPE      H17R           23.5381028927       47.1996815379       -1.1322744719  MEMB      149             0.0000000000
     17126       149  POPE      H17S           24.4387419487       45.9931117870       -0.1777501021  MEMB      149             0.0000000000
     17127       149  POPE      C218           25.3755650889       47.9676326713        0.0574457796  MEMB      149             0.0000000000
     17128       149  POPE      H18R           25.8630818666       47.5240454507        0.9518054352  MEMB      149             0.0000000000
     17129       149  POPE      H18S           24.9198236834       48.9690421027        0.2117174496  MEMB      149             0.0000000000
     17130       149  POPE      H18T           26.0894350038       47.9343104896       -0.7932023812  MEMB      149             0.0000000000
     17131       149  POPE      C33            25.5446612212       42.5132539325       12.2755644462  MEMB      149             0.0000000000
     17132       149  POPE      H3X            26.3212891013       42.3139258028       11.5065139599  MEMB      149             0.0000000000
     17133       149  POPE      H3Y            25.4549429797       43.6030862865       12.4718739093  MEMB      149             0.0000000000
     17134       149  POPE      C34            24.1440041874       42.2094895148       11.6949574512  MEMB      149             0.0000000000
     17135       149  POPE      H4X            23.3132546778       42.8168720674       12.1136012145  MEMB      149             0.0000000000
     17136       149  POPE      H4Y            23.7819997712       41.2313282982       12.0776766102  MEMB      149             0.0000000000
     17137       149  POPE      C35            24.0859747620       42.3033053837       10.1218528409  MEMB      149             0.0000000000
     17138       149  POPE      H5X            23.1212853930       41.8512674799        9.8066426852  MEMB      149             0.0000000000
     17139       149  POPE      H5Y            24.9782284125       41.7156456916        9.8171224603  MEMB      149             0.0000000000
     17140       149  POPE      C36            24.2354571002       43.7961322931        9.6834397166  MEMB      149             0.0000000000
     17141       149  POPE      H6X            25.3125092548       44.0195263080        9.8395634454  MEMB      149             0.0000000000
     17142       149  POPE      H6Y            23.7662774168       44.4308511040       10.4653116353  MEMB      149             0.0000000000
     17143       149  POPE      C37            23.7359995128       44.1058566250        8.2584350627  MEMB      149             0.0000000000
     17144       149  POPE      H7X            24.0039651167       45.1309496147        7.9242196645  MEMB      149             0.0000000000
     17145       149  POPE      H7Y            22.6290584572       44.0753529264        8.3482801946  MEMB      149             0.0000000000
     17146       149  POPE      C38            24.0969309924       42.9957098642        7.2232844478  MEMB      149             0.0000000000
     17147       149  POPE      H8X            23.6072161536       42.0659703353        7.5839569113  MEMB      149             0.0000000000
     17148       149  POPE      H8Y            25.1858199458       42.7781729267        7.1869576419  MEMB      149             0.0000000000
     17149       149  POPE      C39            23.5046643057       43.3752073211        5.8480726922  MEMB      149             0.0000000000
     17150       149  POPE      H9X            23.8146174084       44.4321798094        5.7029546962  MEMB      149             0.0000000000
     17151       149  POPE      H9Y            22.4021592091       43.3683895577        5.9850295438  MEMB      149             0.0000000000
     17152       149  POPE      C310           23.7324184166       42.4091002275        4.7594494666  MEMB      149             0.0000000000
     17153       149  POPE      H10X           23.5218702300       41.3735927209        5.1025452159  MEMB      149             0.0000000000
     17154       149  POPE      H10Y           24.7814756226       42.4811552301        4.4008299108  MEMB      149             0.0000000000
     17155       149  POPE      C311           22.6163655167       42.4985272579        3.6142773192  MEMB      149             0.0000000000
     17156       149  POPE      H11X           22.3302763490       43.5654332546        3.4951733020  MEMB      149             0.0000000000
     17157       149  POPE      H11Y           21.7070756346       41.9690966541        3.9709510646  MEMB      149             0.0000000000
     17158       149  POPE      C312           23.1212653138       42.0458633588        2.1969754423  MEMB      149             0.0000000000
     17159       149  POPE      H12X           23.7512576185       41.1316578670        2.2377055413  MEMB      149             0.0000000000
     17160       149  POPE      H12Y           23.7943288150       42.8413730250        1.8116563951  MEMB      149             0.0000000000
     17161       149  POPE      C313           22.0363081507       41.7557016258        1.1512931838  MEMB      149             0.0000000000
     17162       149  POPE      H13X           21.4151997582       42.6351998967        0.8773804976  MEMB      149             0.0000000000
     17163       149  POPE      H13Y           21.3119830637       41.0147797948        1.5521782204  MEMB      149             0.0000000000
     17164       149  POPE      C314           22.7126538166       41.3270433554       -0.1854102317  MEMB      149             0.0000000000
     17165       149  POPE      H14X           21.8926094228       41.4142073502       -0.9298900785  MEMB      149             0.0000000000
     17166       149  POPE      H14Y           22.9362715506       40.2462718757       -0.0579377904  MEMB      149             0.0000000000
     17167       149  POPE      C315           24.0037810171       42.0776919323       -0.6953460301  MEMB      149             0.0000000000
     17168       149  POPE      H15X           24.3803408133       41.7313861503       -1.6815481331  MEMB      149             0.0000000000
     17169       149  POPE      H15Y           24.7991366961       41.8905041150        0.0574439885  MEMB      149             0.0000000000
     17170       149  POPE      C316           23.8156075337       43.5304763755       -1.0140380910  MEMB      149             0.0000000000
     17171       149  POPE      H16X           22.9721169762       43.6450889877       -1.7279759174  MEMB      149             0.0000000000
     17172       149  POPE      H16Y           24.7052265120       44.0187053115       -1.4662895297  MEMB      149             0.0000000000
     17173       149  POPE      H16Z           23.5702096433       43.9921869926       -0.0337708715  MEMB      149             0.0000000000
     17174       150  POPC      N             -14.6538810948      -52.2354318981       18.8828929869  MEMB      150             0.0000000000
     17175       150  POPC      C12           -15.7609500682      -52.6010471483       17.9244380841  MEMB      150             0.0000000000
     17176       150  POPC      H12A          -16.0458955013      -53.6201109224       18.1405752862  MEMB      150             0.0000000000
     17177       150  POPC      H12B          -15.3060571055      -52.5520264931       16.9461390185  MEMB      150             0.0000000000
     17178       150  POPC      C13           -14.8931197442      -53.1223560930       20.0702261284  MEMB      150             0.0000000000
     17179       150  POPC      H13A          -14.9022295731      -54.1734754973       19.8223051195  MEMB      150             0.0000000000
     17180       150  POPC      H13B          -14.1361966760      -53.0838130141       20.8396295070  MEMB      150             0.0000000000
     17181       150  POPC      H13C          -15.8168015763      -52.7264580909       20.4657974950  MEMB      150             0.0000000000
     17182       150  POPC      C14           -13.3652293247      -52.6583190717       18.1732815289  MEMB      150             0.0000000000
     17183       150  POPC      H14A          -13.5219015575      -52.5066145058       17.1155293954  MEMB      150             0.0000000000
     17184       150  POPC      H14B          -12.5860616175      -51.9989545120       18.5261779986  MEMB      150             0.0000000000
     17185       150  POPC      H14C          -13.1852753359      -53.7022014817       18.3838189427  MEMB      150             0.0000000000
     17186       150  POPC      C15           -14.5885625405      -50.7746250164       19.2082890263  MEMB      150             0.0000000000
     17187       150  POPC      H15A          -15.2845262684      -50.6033547399       20.0161881214  MEMB      150             0.0000000000
     17188       150  POPC      H15B          -14.7825056385      -50.1554681611       18.3449056242  MEMB      150             0.0000000000
     17189       150  POPC      H15C          -13.5797616964      -50.6972183988       19.5860846066  MEMB      150             0.0000000000
     17190       150  POPC      C11           -17.0406178693      -51.7273653029       17.8320333660  MEMB      150             0.0000000000
     17191       150  POPC      H11A          -17.6521005740      -52.1504175439       17.0065414799  MEMB      150             0.0000000000
     17192       150  POPC      H11B          -16.8250970035      -50.7083705486       17.4453534212  MEMB      150             0.0000000000
     17193       150  POPC      P             -18.9595958447      -52.3257617622       19.4409326804  MEMB      150             0.0000000000
     17194       150  POPC      O13           -20.2007356817      -51.5343357571       19.3647051134  MEMB      150             0.0000000000
     17195       150  POPC      O14           -18.6497505788      -52.9419050548       20.7356809600  MEMB      150             0.0000000000
     17196       150  POPC      O12           -17.7249956049      -51.4501563844       19.0322592265  MEMB      150             0.0000000000
     17197       150  POPC      O11           -19.0197165499      -53.4669605131       18.3352608539  MEMB      150             0.0000000000
     17198       150  POPC      C1            -18.9118536555      -54.8362399774       18.6985546802  MEMB      150             0.0000000000
     17199       150  POPC      HA            -19.6887930709      -55.0944510186       19.4495628679  MEMB      150             0.0000000000
     17200       150  POPC      HB            -17.9683995271      -55.1208601481       19.2115913962  MEMB      150             0.0000000000
     17201       150  POPC      C2            -18.9965485217      -55.7374744384       17.4282132694  MEMB      150             0.0000000000
     17202       150  POPC      HS            -19.0418422768      -56.8097960416       17.7152597493  MEMB      150             0.0000000000
     17203       150  POPC      O21           -17.9282405000      -55.5661523180       16.5600162907  MEMB      150             0.0000000000
     17204       150  POPC      C21           -16.8292056841      -56.3076387548       16.8186201796  MEMB      150             0.0000000000
     17205       150  POPC      O22           -16.6440743980      -56.8793511967       17.8877035663  MEMB      150             0.0000000000
     17206       150  POPC      C22           -15.9134023335      -56.2893762493       15.6242244669  MEMB      150             0.0000000000
     17207       150  POPC      H2R           -16.2089512335      -57.0424488456       14.8627436619  MEMB      150             0.0000000000
     17208       150  POPC      H2S           -14.8932296738      -56.4503754730       16.0336725569  MEMB      150             0.0000000000
     17209       150  POPC      C3            -20.3056683502      -55.5179939175       16.6082627504  MEMB      150             0.0000000000
     17210       150  POPC      HX            -21.1572589127      -55.6546298838       17.3085806934  MEMB      150             0.0000000000
     17211       150  POPC      HY            -20.3448494820      -56.2679858520       15.7895454810  MEMB      150             0.0000000000
     17212       150  POPC      O31           -20.2842743777      -54.1259071707       16.1469327370  MEMB      150             0.0000000000
     17213       150  POPC      C31           -20.4480238165      -53.8007254496       14.8674834788  MEMB      150             0.0000000000
     17214       150  POPC      O32           -20.7828388840      -54.5660499264       13.9737268788  MEMB      150             0.0000000000
     17215       150  POPC      C32           -20.1954666403      -52.2531727485       14.7534227298  MEMB      150             0.0000000000
     17216       150  POPC      H2X           -19.3225857230      -52.0792021056       15.4183547210  MEMB      150             0.0000000000
     17217       150  POPC      H2Y           -21.0307136423      -51.6344133243       15.1456220183  MEMB      150             0.0000000000
     17218       150  POPC      C23           -15.8771622205      -54.9533549895       14.8721523828  MEMB      150             0.0000000000
     17219       150  POPC      H3R           -15.6852301722      -54.2539088741       15.7137330739  MEMB      150             0.0000000000
     17220       150  POPC      H3S           -16.8692792851      -54.8216404245       14.3897871856  MEMB      150             0.0000000000
     17221       150  POPC      C24           -14.8272062078      -54.9698715295       13.7236236267  MEMB      150             0.0000000000
     17222       150  POPC      H4R           -15.2103975697      -55.5969194710       12.8903792597  MEMB      150             0.0000000000
     17223       150  POPC      H4S           -13.8897101066      -55.4439787482       14.0850719671  MEMB      150             0.0000000000
     17224       150  POPC      C25           -14.4796220042      -53.5108210432       13.2267017096  MEMB      150             0.0000000000
     17225       150  POPC      H5R           -13.4612033896      -53.5675742179       12.7863334636  MEMB      150             0.0000000000
     17226       150  POPC      H5S           -14.1498682139      -52.9762378235       14.1431099419  MEMB      150             0.0000000000
     17227       150  POPC      C26           -15.5419796352      -52.7578327997       12.3873015773  MEMB      150             0.0000000000
     17228       150  POPC      H6R           -15.1176114907      -51.8009044537       12.0151179638  MEMB      150             0.0000000000
     17229       150  POPC      H6S           -16.3777613708      -52.5930098395       13.1004798767  MEMB      150             0.0000000000
     17230       150  POPC      C27           -16.2660708586      -53.6232141004       11.2992710169  MEMB      150             0.0000000000
     17231       150  POPC      H7R           -17.1142561518      -53.0880968702       10.8211996317  MEMB      150             0.0000000000
     17232       150  POPC      H7S           -16.7015919731      -54.5337265375       11.7636090981  MEMB      150             0.0000000000
     17233       150  POPC      C28           -15.3237816867      -54.0985528169       10.2316507617  MEMB      150             0.0000000000
     17234       150  POPC      H8R           -15.6143663785      -55.1335948961        9.9513484083  MEMB      150             0.0000000000
     17235       150  POPC      H8S           -14.2985782260      -54.1626889287       10.6549309311  MEMB      150             0.0000000000
     17236       150  POPC      C29           -15.3455261996      -53.3602438620        8.8898185984  MEMB      150             0.0000000000
     17237       150  POPC      H91           -15.2213030280      -52.2698273905        8.9643861231  MEMB      150             0.0000000000
     17238       150  POPC      C210          -15.6077871515      -53.8160046172        7.6590785272  MEMB      150             0.0000000000
     17239       150  POPC      H101          -15.7346973871      -52.9506722741        6.9919259139  MEMB      150             0.0000000000
     17240       150  POPC      C211          -15.9713372400      -55.2391775031        7.1486911796  MEMB      150             0.0000000000
     17241       150  POPC      H11R          -15.5261339284      -56.0456649762        7.7697337387  MEMB      150             0.0000000000
     17242       150  POPC      H11S          -15.7730002538      -55.4102511581        6.0690073722  MEMB      150             0.0000000000
     17243       150  POPC      C212          -17.4807763971      -55.5676391804        7.3263887606  MEMB      150             0.0000000000
     17244       150  POPC      H12R          -17.6261539483      -55.7940398213        8.4043161602  MEMB      150             0.0000000000
     17245       150  POPC      H12S          -17.8039250124      -56.4044140197        6.6708707454  MEMB      150             0.0000000000
     17246       150  POPC      C213          -18.4590200275      -54.3725699740        7.0633017538  MEMB      150             0.0000000000
     17247       150  POPC      H13R          -18.2211672245      -53.7882180051        6.1488186630  MEMB      150             0.0000000000
     17248       150  POPC      H13S          -18.2563029031      -53.6193600993        7.8544412714  MEMB      150             0.0000000000
     17249       150  POPC      C214          -19.8951265247      -54.8303123166        7.0427788441  MEMB      150             0.0000000000
     17250       150  POPC      H14R          -20.4284070152      -53.9471632035        7.4550660399  MEMB      150             0.0000000000
     17251       150  POPC      H14S          -19.9343695763      -55.7778137942        7.6215886587  MEMB      150             0.0000000000
     17252       150  POPC      C215          -20.3394586248      -55.2650736875        5.6732726895  MEMB      150             0.0000000000
     17253       150  POPC      H15R          -21.2404843266      -55.8947812408        5.8343392497  MEMB      150             0.0000000000
     17254       150  POPC      H15S          -19.6402284889      -55.8743994640        5.0616188148  MEMB      150             0.0000000000
     17255       150  POPC      C216          -20.7870952598      -54.1810399294        4.7209823319  MEMB      150             0.0000000000
     17256       150  POPC      H16R          -19.9868732390      -53.4219959596        4.5874977202  MEMB      150             0.0000000000
     17257       150  POPC      H16S          -21.5593362263      -53.5737701678        5.2398162312  MEMB      150             0.0000000000
     17258       150  POPC      C217          -21.3470105445      -54.7267739322        3.4498686861  MEMB      150             0.0000000000
     17259       150  POPC      H17R          -22.2637366367      -55.3201323101        3.6544641133  MEMB      150             0.0000000000
     17260       150  POPC      H17S          -20.6172315704      -55.4190197633        2.9781275059  MEMB      150             0.0000000000
     17261       150  POPC      C218          -21.7420714502      -53.6175966332        2.4431904637  MEMB      150             0.0000000000
     17262       150  POPC      H18R          -21.1850076231      -53.8957037038        1.5230500592  MEMB      150             0.0000000000
     17263       150  POPC      H18S          -21.4255499030      -52.5742897723        2.6568388256  MEMB      150             0.0000000000
     17264       150  POPC      H18T          -22.8528262935      -53.6322590502        2.4250397060  MEMB      150             0.0000000000
     17265       150  POPC      C33           -19.8709986647      -52.0569131042       13.2464847570  MEMB      150             0.0000000000
     17266       150  POPC      H3X           -20.7388417041      -52.3636437583       12.6243221360  MEMB      150             0.0000000000
     17267       150  POPC      H3Y           -19.0133083535      -52.7527851922       13.1262755169  MEMB      150             0.0000000000
     17268       150  POPC      C34           -19.3373681413      -50.6504985625       12.8850682394  MEMB      150             0.0000000000
     17269       150  POPC      H4X           -18.6139657149      -50.3196079206       13.6606459128  MEMB      150             0.0000000000
     17270       150  POPC      H4Y           -20.1721209143      -49.9208365964       12.9564975843  MEMB      150             0.0000000000
     17271       150  POPC      C35           -18.7374501008      -50.5886055185       11.4970585199  MEMB      150             0.0000000000
     17272       150  POPC      H5X           -19.3971109971      -51.1860379349       10.8320445978  MEMB      150             0.0000000000
     17273       150  POPC      H5Y           -17.7583784317      -51.1136073692       11.4864405540  MEMB      150             0.0000000000
     17274       150  POPC      C36           -18.7443562255      -49.1866363364       10.8699559798  MEMB      150             0.0000000000
     17275       150  POPC      H6X           -17.9746937293      -48.6295159463       11.4457663268  MEMB      150             0.0000000000
     17276       150  POPC      H6Y           -19.7850698448      -48.8128059813       10.7627790735  MEMB      150             0.0000000000
     17277       150  POPC      C37           -18.1994138206      -49.2033521682        9.4394387737  MEMB      150             0.0000000000
     17278       150  POPC      H7X           -17.1819266002      -49.6487596952        9.4138837151  MEMB      150             0.0000000000
     17279       150  POPC      H7Y           -18.0274072680      -48.1585627847        9.1030607059  MEMB      150             0.0000000000
     17280       150  POPC      C38           -19.1443510748      -49.9660508013        8.4218956252  MEMB      150             0.0000000000
     17281       150  POPC      H8X           -20.2307418022      -49.8176047471        8.6008925904  MEMB      150             0.0000000000
     17282       150  POPC      H8Y           -19.1208304694      -51.0684809151        8.5576005832  MEMB      150             0.0000000000
     17283       150  POPC      C39           -18.7549963703      -49.7957377270        6.9311257671  MEMB      150             0.0000000000
     17284       150  POPC      H9X           -19.0766730539      -48.8060514755        6.5420667569  MEMB      150             0.0000000000
     17285       150  POPC      H9Y           -19.4014028183      -50.5439030222        6.4244419589  MEMB      150             0.0000000000
     17286       150  POPC      C310          -17.3116941996      -50.1133698281        6.6473336834  MEMB      150             0.0000000000
     17287       150  POPC      H10X          -16.9585972179      -50.9697779470        7.2606915099  MEMB      150             0.0000000000
     17288       150  POPC      H10Y          -16.6978896567      -49.2129552026        6.8637086646  MEMB      150             0.0000000000
     17289       150  POPC      C311          -17.0685545262      -50.5255271497        5.1995287092  MEMB      150             0.0000000000
     17290       150  POPC      H11X          -17.3984965077      -49.7307768153        4.4967973524  MEMB      150             0.0000000000
     17291       150  POPC      H11Y          -17.6599010602      -51.4554486404        5.0585455951  MEMB      150             0.0000000000
     17292       150  POPC      C312          -15.6232085284      -50.8025102363        5.0201635513  MEMB      150             0.0000000000
     17293       150  POPC      H12X          -15.0441395785      -51.3150643155        5.8178397900  MEMB      150             0.0000000000
     17294       150  POPC      H12Y          -15.1654345658      -49.7994230180        5.1564715756  MEMB      150             0.0000000000
     17295       150  POPC      C313          -15.1983381029      -51.3097484288        3.6702643706  MEMB      150             0.0000000000
     17296       150  POPC      H13X          -14.3182733007      -50.7496848484        3.2879866755  MEMB      150             0.0000000000
     17297       150  POPC      H13Y          -15.9386666349      -51.1153838801        2.8649953905  MEMB      150             0.0000000000
     17298       150  POPC      C314          -15.0079601890      -52.7884031840        3.6392837464  MEMB      150             0.0000000000
     17299       150  POPC      H14X          -15.8466680756      -53.2231416963        4.2239996187  MEMB      150             0.0000000000
     17300       150  POPC      H14Y          -14.1829767054      -53.0048678628        4.3512289652  MEMB      150             0.0000000000
     17301       150  POPC      C315          -14.7887485675      -53.4341860565        2.2351858368  MEMB      150             0.0000000000
     17302       150  POPC      H15X          -15.7934639342      -53.3344748324        1.7715847016  MEMB      150             0.0000000000
     17303       150  POPC      H15Y          -14.6999320343      -54.5401934469        2.2915761438  MEMB      150             0.0000000000
     17304       150  POPC      C316          -13.6999964269      -52.8006890786        1.4281127735  MEMB      150             0.0000000000
     17305       150  POPC      H16X          -12.7911874658      -53.1235386298        1.9796143667  MEMB      150             0.0000000000
     17306       150  POPC      H16Y          -13.8087671615      -51.6950289505        1.4304890032  MEMB      150             0.0000000000
     17307       150  POPC      H16Z          -13.7118769356      -53.1594429273        0.3766969248  MEMB      150             0.0000000000
     17308       151  POPE      N              41.3924164080       41.4354442383       19.7273130468  MEMB      151             0.0000000000
     17309       151  POPE      HN1            42.1345398728       41.7221920225       20.3971103810  MEMB      151             0.0000000000
     17310       151  POPE      HN2            40.7533740397       42.2405051252       19.5688772543  MEMB      151             0.0000000000
     17311       151  POPE      HN3            40.8218087139       40.7104067273       20.2072375100  MEMB      151             0.0000000000
     17312       151  POPE      C12            42.1082705009       40.9312138048       18.4467317925  MEMB      151             0.0000000000
     17313       151  POPE      H12A           43.1797631880       40.9114114067       18.7397038408  MEMB      151             0.0000000000
     17314       151  POPE      H12B           41.8682445831       41.6841841183       17.6658704735  MEMB      151             0.0000000000
     17315       151  POPE      C11            41.7799692453       39.4577075664       18.0235567999  MEMB      151             0.0000000000
     17316       151  POPE      H11A           42.3547515766       39.1840090193       17.1130430625  MEMB      151             0.0000000000
     17317       151  POPE      H11B           40.7231561065       39.4674521709       17.6809609584  MEMB      151             0.0000000000
     17318       151  POPE      P              41.4634442986       37.1179049552       19.2243713003  MEMB      151             0.0000000000
     17319       151  POPE      O13            40.1364497095       36.8897129912       19.8619476995  MEMB      151             0.0000000000
     17320       151  POPE      O14            42.5822794341       36.4249761254       19.8437582316  MEMB      151             0.0000000000
     17321       151  POPE      O11            41.3323263948       36.7808539355       17.6948984975  MEMB      151             0.0000000000
     17322       151  POPE      O12            41.9517392131       38.6963303819       19.1774226325  MEMB      151             0.0000000000
     17323       151  POPE      C1             40.7329553119       35.4806878213       17.3699830202  MEMB      151             0.0000000000
     17324       151  POPE      HA             40.2238263568       34.9393622395       18.1958615100  MEMB      151             0.0000000000
     17325       151  POPE      HB             41.5408690844       34.8013783286       17.0233779411  MEMB      151             0.0000000000
     17326       151  POPE      C2             39.5593848654       35.6470313470       16.3701141137  MEMB      151             0.0000000000
     17327       151  POPE      HS             39.2234174233       34.7043636217       15.8875951553  MEMB      151             0.0000000000
     17328       151  POPE      O21            39.9130556613       36.6471891880       15.4027518677  MEMB      151             0.0000000000
     17329       151  POPE      C21            40.6003467764       36.3009445910       14.3156464660  MEMB      151             0.0000000000
     17330       151  POPE      O22            40.8757162868       35.2233085575       13.9064884713  MEMB      151             0.0000000000
     17331       151  POPE      C22            40.9437593845       37.5339534827       13.4641948906  MEMB      151             0.0000000000
     17332       151  POPE      H2R            40.8054152865       38.4790757300       14.0315800052  MEMB      151             0.0000000000
     17333       151  POPE      H2S            40.1361446157       37.5912102287       12.7034050707  MEMB      151             0.0000000000
     17334       151  POPE      C3             38.2917328571       36.0651871882       17.1426941145  MEMB      151             0.0000000000
     17335       151  POPE      HX             38.6090979663       36.9417971620       17.7469750604  MEMB      151             0.0000000000
     17336       151  POPE      HY             38.0341724995       35.3480441801       17.9512048190  MEMB      151             0.0000000000
     17337       151  POPE      O31            37.1718372946       36.3143518796       16.2629276287  MEMB      151             0.0000000000
     17338       151  POPE      C31            37.1640185999       37.5449984634       15.6819139988  MEMB      151             0.0000000000
     17339       151  POPE      O32            37.7942551217       38.5095420328       16.0559564141  MEMB      151             0.0000000000
     17340       151  POPE      C32            36.0030555483       37.5760930738       14.7203968840  MEMB      151             0.0000000000
     17341       151  POPE      H2X            35.0192844964       37.7535345003       15.2051957043  MEMB      151             0.0000000000
     17342       151  POPE      H2Y            35.8420086624       36.6116053482       14.1929994590  MEMB      151             0.0000000000
     17343       151  POPE      C23            42.3477343385       37.3583235656       12.9273373214  MEMB      151             0.0000000000
     17344       151  POPE      H3R            42.3495825282       36.4646886277       12.2672356720  MEMB      151             0.0000000000
     17345       151  POPE      H3S            43.1015196834       37.1300258829       13.7109242551  MEMB      151             0.0000000000
     17346       151  POPE      C24            43.0697535090       38.4513246711       12.0801106154  MEMB      151             0.0000000000
     17347       151  POPE      H4R            43.1063597572       39.3528599617       12.7283504348  MEMB      151             0.0000000000
     17348       151  POPE      H4S            42.4846741793       38.6534769613       11.1575394062  MEMB      151             0.0000000000
     17349       151  POPE      C25            44.4923133175       38.0462692015       11.6486696244  MEMB      151             0.0000000000
     17350       151  POPE      H5R            44.3770350449       37.2770279009       10.8553852720  MEMB      151             0.0000000000
     17351       151  POPE      H5S            44.9721386113       37.5195067750       12.5010834174  MEMB      151             0.0000000000
     17352       151  POPE      C26            45.4017252745       39.2142349941       11.2539181322  MEMB      151             0.0000000000
     17353       151  POPE      H6R            46.3953238169       38.8651861273       10.9000138043  MEMB      151             0.0000000000
     17354       151  POPE      H6S            45.6692657122       39.8633325195       12.1149727823  MEMB      151             0.0000000000
     17355       151  POPE      C27            44.8902442122       40.2216478525       10.2157586832  MEMB      151             0.0000000000
     17356       151  POPE      H7R            45.7512111913       40.8485779563        9.8995058626  MEMB      151             0.0000000000
     17357       151  POPE      H7S            44.1259472862       40.8421612066       10.7306699509  MEMB      151             0.0000000000
     17358       151  POPE      C28            44.2227022095       39.7770690357        8.9618542527  MEMB      151             0.0000000000
     17359       151  POPE      H8R            43.8896500464       40.5942429905        8.2868540969  MEMB      151             0.0000000000
     17360       151  POPE      H8S            43.2794995997       39.2152794694        9.1323881612  MEMB      151             0.0000000000
     17361       151  POPE      C29            45.1471722110       38.8894417589        8.0501053530  MEMB      151             0.0000000000
     17362       151  POPE      H91            46.2226424818       39.1197180080        8.0684594329  MEMB      151             0.0000000000
     17363       151  POPE      C210           44.7800182836       38.0459204946        7.0232545661  MEMB      151             0.0000000000
     17364       151  POPE      H101           45.5778918071       37.5941055877        6.4155855239  MEMB      151             0.0000000000
     17365       151  POPE      C211           43.3271341236       37.7766259249        6.5562415101  MEMB      151             0.0000000000
     17366       151  POPE      H11R           43.0128110935       38.3738886355        5.6737445843  MEMB      151             0.0000000000
     17367       151  POPE      H11S           42.8080454209       38.1337807241        7.4712863746  MEMB      151             0.0000000000
     17368       151  POPE      C212           42.9584687555       36.3634640335        6.2957478634  MEMB      151             0.0000000000
     17369       151  POPE      H12R           41.8798406744       36.3416669070        6.5610921472  MEMB      151             0.0000000000
     17370       151  POPE      H12S           43.4032901799       35.6640005381        7.0354813760  MEMB      151             0.0000000000
     17371       151  POPE      C213           43.4079241636       35.6650151831        4.9548828046  MEMB      151             0.0000000000
     17372       151  POPE      H13R           43.1107110468       34.6017729538        5.0793873386  MEMB      151             0.0000000000
     17373       151  POPE      H13S           44.5180675606       35.7066031915        4.9417225078  MEMB      151             0.0000000000
     17374       151  POPE      C214           42.9458563254       36.4073863340        3.7130238061  MEMB      151             0.0000000000
     17375       151  POPE      H14R           43.2784143013       35.7628531053        2.8714166619  MEMB      151             0.0000000000
     17376       151  POPE      H14S           43.3705523123       37.4325594602        3.6584857642  MEMB      151             0.0000000000
     17377       151  POPE      C215           41.3952911394       36.5956812492        3.7097108623  MEMB      151             0.0000000000
     17378       151  POPE      H15R           41.1552726425       37.2573857612        4.5692806024  MEMB      151             0.0000000000
     17379       151  POPE      H15S           40.8833754718       35.6383167827        3.9457550111  MEMB      151             0.0000000000
     17380       151  POPE      C216           40.8176304381       37.1076762674        2.4013318160  MEMB      151             0.0000000000
     17381       151  POPE      H16R           41.1524713058       36.3674862957        1.6434905388  MEMB      151             0.0000000000
     17382       151  POPE      H16S           41.2916261055       38.0792422912        2.1449937899  MEMB      151             0.0000000000
     17383       151  POPE      C217           39.2943773327       37.2850543671        2.3467662534  MEMB      151             0.0000000000
     17384       151  POPE      H17R           38.9125217469       37.6854980606        3.3101732793  MEMB      151             0.0000000000
     17385       151  POPE      H17S           38.8243864407       36.2839048245        2.2412723784  MEMB      151             0.0000000000
     17386       151  POPE      C218           38.6356384074       38.1178596677        1.2660376520  MEMB      151             0.0000000000
     17387       151  POPE      H18R           38.9714434736       39.1764267494        1.2975307067  MEMB      151             0.0000000000
     17388       151  POPE      H18S           37.5300344216       38.1414675980        1.3728230887  MEMB      151             0.0000000000
     17389       151  POPE      H18T           38.9819468864       37.8168230912        0.2542222406  MEMB      151             0.0000000000
     17390       151  POPE      C33            36.0564674595       38.7713550618       13.7010246883  MEMB      151             0.0000000000
     17391       151  POPE      H3X            35.9681454741       39.7295283289       14.2563843123  MEMB      151             0.0000000000
     17392       151  POPE      H3Y            35.2384238476       38.8600376637       12.9545252869  MEMB      151             0.0000000000
     17393       151  POPE      C34            37.3391406145       38.7455280892       12.8318151048  MEMB      151             0.0000000000
     17394       151  POPE      H4X            37.6505666586       37.7358962472       12.4883356785  MEMB      151             0.0000000000
     17395       151  POPE      H4Y            38.1517089559       39.0735212891       13.5148043371  MEMB      151             0.0000000000
     17396       151  POPE      C35            37.3455016228       39.7266974518       11.6442676692  MEMB      151             0.0000000000
     17397       151  POPE      H5X            37.3624852105       40.7326511238       12.1155321328  MEMB      151             0.0000000000
     17398       151  POPE      H5Y            36.3250375537       39.6919824054       11.2063537354  MEMB      151             0.0000000000
     17399       151  POPE      C36            38.4103083296       39.4392758675       10.5802812053  MEMB      151             0.0000000000
     17400       151  POPE      H6X            38.0063820745       39.2516878551        9.5624527865  MEMB      151             0.0000000000
     17401       151  POPE      H6Y            38.9586775140       38.5200847004       10.8781063685  MEMB      151             0.0000000000
     17402       151  POPE      C37            39.5795237713       40.3819368236       10.5304437050  MEMB      151             0.0000000000
     17403       151  POPE      H7X            40.4008180857       39.9324615159        9.9323067231  MEMB      151             0.0000000000
     17404       151  POPE      H7Y            39.9889419350       40.5783714426       11.5444021762  MEMB      151             0.0000000000
     17405       151  POPE      C38            39.2666582699       41.7644149056        9.8504867940  MEMB      151             0.0000000000
     17406       151  POPE      H8X            40.1260733767       42.4653918000        9.9165011219  MEMB      151             0.0000000000
     17407       151  POPE      H8Y            38.4393819719       42.3101849049       10.3525523823  MEMB      151             0.0000000000
     17408       151  POPE      C39            38.9025536329       41.5649854177        8.3669245578  MEMB      151             0.0000000000
     17409       151  POPE      H9X            37.8932027129       41.1051834546        8.3027869307  MEMB      151             0.0000000000
     17410       151  POPE      H9Y            39.5312040473       40.7721130463        7.9081516534  MEMB      151             0.0000000000
     17411       151  POPE      C310           39.0156267157       42.7657259176        7.4349352858  MEMB      151             0.0000000000
     17412       151  POPE      H10X           38.1723372599       43.4449030291        7.6837369987  MEMB      151             0.0000000000
     17413       151  POPE      H10Y           38.7331695927       42.5072377183        6.3919959256  MEMB      151             0.0000000000
     17414       151  POPE      C311           40.5048629128       43.3551936966        7.4410750969  MEMB      151             0.0000000000
     17415       151  POPE      H11X           40.6230791093       43.9107124186        8.3959284045  MEMB      151             0.0000000000
     17416       151  POPE      H11Y           40.6267120797       44.0217996864        6.5606715771  MEMB      151             0.0000000000
     17417       151  POPE      C312           41.7521188961       42.3653899315        7.3961065085  MEMB      151             0.0000000000
     17418       151  POPE      H12X           41.5995858190       41.6646098173        8.2446122043  MEMB      151             0.0000000000
     17419       151  POPE      H12Y           42.7426336305       42.8159452383        7.6201638173  MEMB      151             0.0000000000
     17420       151  POPE      C313           41.7641249469       41.3798994298        6.1932248640  MEMB      151             0.0000000000
     17421       151  POPE      H13X           40.6816891658       41.2078271814        6.0114423324  MEMB      151             0.0000000000
     17422       151  POPE      H13Y           42.3669246474       40.4872433115        6.4654719285  MEMB      151             0.0000000000
     17423       151  POPE      C314           42.3607158466       41.9853114594        4.9169183878  MEMB      151             0.0000000000
     17424       151  POPE      H14X           43.3581547442       42.3894554908        5.1927891504  MEMB      151             0.0000000000
     17425       151  POPE      H14Y           41.7701096121       42.8752474694        4.6111094424  MEMB      151             0.0000000000
     17426       151  POPE      C315           42.3767164810       41.0453593005        3.7302333995  MEMB      151             0.0000000000
     17427       151  POPE      H15X           42.5722778171       40.0093150591        4.0805040161  MEMB      151             0.0000000000
     17428       151  POPE      H15Y           43.1653246359       41.1918136888        2.9614888281  MEMB      151             0.0000000000
     17429       151  POPE      C316           40.9907840530       41.0090570865        3.0041280991  MEMB      151             0.0000000000
     17430       151  POPE      H16X           41.1496304064       40.4775355563        2.0415411205  MEMB      151             0.0000000000
     17431       151  POPE      H16Y           40.6769882935       42.0189511819        2.6635895206  MEMB      151             0.0000000000
     17432       151  POPE      H16Z           40.1430118114       40.5488173681        3.5552929573  MEMB      151             0.0000000000
     17433       152  POPE      N             -26.1620471482      -47.6992568591       17.4478557941  MEMB      152             0.0000000000
     17434       152  POPE      HN1           -27.1073574653      -47.7274405441       17.0151962599  MEMB      152             0.0000000000
     17435       152  POPE      HN2           -25.6919053512      -46.7749768970       17.3686522285  MEMB      152             0.0000000000
     17436       152  POPE      HN3           -25.5433792657      -48.4552825078       17.0910993768  MEMB      152             0.0000000000
     17437       152  POPE      C12           -26.4717500738      -47.7929125002       18.9795052890  MEMB      152             0.0000000000
     17438       152  POPE      H12A          -27.2905993024      -48.5437771717       18.9764722133  MEMB      152             0.0000000000
     17439       152  POPE      H12B          -26.9450650721      -46.8680247517       19.3730489046  MEMB      152             0.0000000000
     17440       152  POPE      C11           -25.3204698764      -48.3624026428       19.8110795441  MEMB      152             0.0000000000
     17441       152  POPE      H11A          -25.0532035600      -49.3471157995       19.3715006066  MEMB      152             0.0000000000
     17442       152  POPE      H11B          -25.6800934882      -48.4942697493       20.8539615880  MEMB      152             0.0000000000
     17443       152  POPE      P             -22.8948002356      -47.6451811718       19.1733554983  MEMB      152             0.0000000000
     17444       152  POPE      O13           -22.4474876020      -48.9499216143       19.6514863748  MEMB      152             0.0000000000
     17445       152  POPE      O14           -22.0275457960      -46.5342082209       19.5545219057  MEMB      152             0.0000000000
     17446       152  POPE      O11           -23.1897939031      -47.6956740251       17.6255532166  MEMB      152             0.0000000000
     17447       152  POPE      O12           -24.2808589291      -47.3881317718       19.7566423740  MEMB      152             0.0000000000
     17448       152  POPE      C1            -22.3259871422      -48.1612905139       16.6349080638  MEMB      152             0.0000000000
     17449       152  POPE      HA            -21.6077516424      -48.9149784359       17.0227397746  MEMB      152             0.0000000000
     17450       152  POPE      HB            -21.6517801410      -47.3512993205       16.2832263867  MEMB      152             0.0000000000
     17451       152  POPE      C2            -23.1553943370      -48.7870182283       15.5092998968  MEMB      152             0.0000000000
     17452       152  POPE      HS            -22.5213636850      -49.0201857342       14.6272799075  MEMB      152             0.0000000000
     17453       152  POPE      O21           -24.2117513824      -47.9090706894       15.1890899858  MEMB      152             0.0000000000
     17454       152  POPE      C21           -23.9507085054      -46.8055217897       14.5403881038  MEMB      152             0.0000000000
     17455       152  POPE      O22           -22.8676537952      -46.3916567004       14.1234839379  MEMB      152             0.0000000000
     17456       152  POPE      C22           -25.3588059186      -46.2243624496       14.1884131412  MEMB      152             0.0000000000
     17457       152  POPE      H2R           -25.9224595657      -46.0153544625       15.1227214075  MEMB      152             0.0000000000
     17458       152  POPE      H2S           -25.9248735474      -47.0847673410       13.7717698504  MEMB      152             0.0000000000
     17459       152  POPE      C3            -23.7430714086      -50.1626050303       15.9528063503  MEMB      152             0.0000000000
     17460       152  POPE      HX            -24.3316003072      -49.8273026870       16.8334464445  MEMB      152             0.0000000000
     17461       152  POPE      HY            -22.9111083984      -50.8705124600       16.1553543534  MEMB      152             0.0000000000
     17462       152  POPE      O31           -24.5989513960      -50.7644510132       15.0222970380  MEMB      152             0.0000000000
     17463       152  POPE      C31           -25.0168401809      -51.9926537451       15.2629109007  MEMB      152             0.0000000000
     17464       152  POPE      O32           -24.6730588238      -52.6337794196       16.2379146819  MEMB      152             0.0000000000
     17465       152  POPE      C32           -25.9494653658      -52.4982838577       14.1288534316  MEMB      152             0.0000000000
     17466       152  POPE      H2X           -27.0086602245      -52.2002933772       14.2825701243  MEMB      152             0.0000000000
     17467       152  POPE      H2Y           -25.9398492714      -53.6051431919       14.2242016228  MEMB      152             0.0000000000
     17468       152  POPE      C23           -25.2410481787      -44.9824972010       13.3075739581  MEMB      152             0.0000000000
     17469       152  POPE      H3R           -24.5727988002      -45.1733400082       12.4407734433  MEMB      152             0.0000000000
     17470       152  POPE      H3S           -24.8483552926      -44.1902232388       13.9801920168  MEMB      152             0.0000000000
     17471       152  POPE      C24           -26.6395347585      -44.6054105651       12.7579475546  MEMB      152             0.0000000000
     17472       152  POPE      H4R           -26.7521097498      -43.5266374855       12.5173321567  MEMB      152             0.0000000000
     17473       152  POPE      H4S           -27.4149175142      -44.8604501964       13.5116435427  MEMB      152             0.0000000000
     17474       152  POPE      C25           -26.9591107831      -45.3520959804       11.4221085613  MEMB      152             0.0000000000
     17475       152  POPE      H5R           -26.6144034886      -46.4041072359       11.5157592934  MEMB      152             0.0000000000
     17476       152  POPE      H5S           -26.4061104426      -44.8902360356       10.5764156030  MEMB      152             0.0000000000
     17477       152  POPE      C26           -28.4697422310      -45.2940715620       11.2613343551  MEMB      152             0.0000000000
     17478       152  POPE      H6R           -28.7809712442      -44.3003550650       10.8740556523  MEMB      152             0.0000000000
     17479       152  POPE      H6S           -28.9255943508      -45.4978829528       12.2537960919  MEMB      152             0.0000000000
     17480       152  POPE      C27           -29.1028585609      -46.2536319808       10.2204656195  MEMB      152             0.0000000000
     17481       152  POPE      H7R           -30.1587063969      -45.9116070637       10.2707231836  MEMB      152             0.0000000000
     17482       152  POPE      H7S           -28.9589692927      -47.3016376460       10.5600253386  MEMB      152             0.0000000000
     17483       152  POPE      C28           -28.7602840406      -46.0529108383        8.7309392473  MEMB      152             0.0000000000
     17484       152  POPE      H8R           -27.6546054967      -45.9616492547        8.6720569820  MEMB      152             0.0000000000
     17485       152  POPE      H8S           -29.2821993935      -45.1257242406        8.4111730836  MEMB      152             0.0000000000
     17486       152  POPE      C29           -29.2296259791      -47.2394946196        7.8680776390  MEMB      152             0.0000000000
     17487       152  POPE      H91           -29.4008612361      -48.1131689027        8.5141204871  MEMB      152             0.0000000000
     17488       152  POPE      C210          -29.5265942020      -47.3317593019        6.5764165548  MEMB      152             0.0000000000
     17489       152  POPE      H101          -29.9008221751      -48.2925324238        6.1931827868  MEMB      152             0.0000000000
     17490       152  POPE      C211          -29.5042372603      -46.1903775338        5.5921230363  MEMB      152             0.0000000000
     17491       152  POPE      H11R          -29.2748722490      -45.2394003452        6.1187687890  MEMB      152             0.0000000000
     17492       152  POPE      H11S          -30.5300538071      -46.1065461825        5.1738011771  MEMB      152             0.0000000000
     17493       152  POPE      C212          -28.5545856409      -46.2244653315        4.3752363590  MEMB      152             0.0000000000
     17494       152  POPE      H12R          -28.5795370846      -45.3099193013        3.7449158663  MEMB      152             0.0000000000
     17495       152  POPE      H12S          -28.9422164245      -47.1183726817        3.8413888304  MEMB      152             0.0000000000
     17496       152  POPE      C213          -27.0632756287      -46.4943342811        4.6830991826  MEMB      152             0.0000000000
     17497       152  POPE      H13R          -26.9879492401      -47.4655153206        5.2173781922  MEMB      152             0.0000000000
     17498       152  POPE      H13S          -26.7781407270      -45.7381822819        5.4454984038  MEMB      152             0.0000000000
     17499       152  POPE      C214          -26.0908019323      -46.2308900950        3.5603103506  MEMB      152             0.0000000000
     17500       152  POPE      H14R          -25.1316158943      -46.1332228533        4.1123466141  MEMB      152             0.0000000000
     17501       152  POPE      H14S          -26.3858623101      -45.2595791487        3.1088506076  MEMB      152             0.0000000000
     17502       152  POPE      C215          -25.9233089745      -47.2844277356        2.4786425720  MEMB      152             0.0000000000
     17503       152  POPE      H15R          -26.8751604350      -47.2558171060        1.9063831917  MEMB      152             0.0000000000
     17504       152  POPE      H15S          -25.9817377839      -48.3250787107        2.8632895218  MEMB      152             0.0000000000
     17505       152  POPE      C216          -24.6667239677      -47.0676150068        1.5859196181  MEMB      152             0.0000000000
     17506       152  POPE      H16R          -23.8463611032      -46.8422390523        2.3004326875  MEMB      152             0.0000000000
     17507       152  POPE      H16S          -24.9453004480      -46.1009902979        1.1143764081  MEMB      152             0.0000000000
     17508       152  POPE      C217          -24.2738549261      -48.1246793357        0.5747175374  MEMB      152             0.0000000000
     17509       152  POPE      H17R          -25.1640494955      -48.1032230284       -0.0896707426  MEMB      152             0.0000000000
     17510       152  POPE      H17S          -24.3406940189      -49.0383665963        1.2032323279  MEMB      152             0.0000000000
     17511       152  POPE      C218          -23.0099260838      -47.9177638208       -0.2383870312  MEMB      152             0.0000000000
     17512       152  POPE      H18R          -22.1100715396      -47.9595257032        0.4118716267  MEMB      152             0.0000000000
     17513       152  POPE      H18S          -23.0121601784      -47.0700977836       -0.9565652272  MEMB      152             0.0000000000
     17514       152  POPE      H18T          -22.8681586650      -48.8140736572       -0.8793661923  MEMB      152             0.0000000000
     17515       152  POPE      C33           -25.5912813826      -52.1091408605       12.6318916159  MEMB      152             0.0000000000
     17516       152  POPE      H3X           -26.1584528193      -52.8513566133       12.0304322795  MEMB      152             0.0000000000
     17517       152  POPE      H3Y           -24.4964886728      -52.2576402226       12.5148545066  MEMB      152             0.0000000000
     17518       152  POPE      C34           -26.2118727181      -50.6915303565       12.2495260108  MEMB      152             0.0000000000
     17519       152  POPE      H4X           -25.5537324127      -50.0067699733       12.8259592053  MEMB      152             0.0000000000
     17520       152  POPE      H4Y           -27.2834212123      -50.6310431379       12.5366602776  MEMB      152             0.0000000000
     17521       152  POPE      C35           -26.1149307253      -50.2973712672       10.7406941529  MEMB      152             0.0000000000
     17522       152  POPE      H5X           -25.0546804115      -50.3633213856       10.4153622816  MEMB      152             0.0000000000
     17523       152  POPE      H5Y           -26.6130751674      -49.3148948527       10.5960801990  MEMB      152             0.0000000000
     17524       152  POPE      C36           -27.0420683379      -51.2644015924        9.9785294311  MEMB      152             0.0000000000
     17525       152  POPE      H6X           -28.0103613205      -51.3677395554       10.5133667627  MEMB      152             0.0000000000
     17526       152  POPE      H6Y           -26.6031285881      -52.2849833816        9.9866471897  MEMB      152             0.0000000000
     17527       152  POPE      C37           -27.3396753066      -50.7756690255        8.5797111654  MEMB      152             0.0000000000
     17528       152  POPE      H7X           -26.4629933663      -50.8856828851        7.9061781274  MEMB      152             0.0000000000
     17529       152  POPE      H7Y           -27.5046957579      -49.6769934157        8.5785608228  MEMB      152             0.0000000000
     17530       152  POPE      C38           -28.4571524772      -51.5693043007        7.9615847233  MEMB      152             0.0000000000
     17531       152  POPE      H8X           -29.4276416677      -51.3101175464        8.4362364298  MEMB      152             0.0000000000
     17532       152  POPE      H8Y           -28.2543768216      -52.6581724947        8.0485840469  MEMB      152             0.0000000000
     17533       152  POPE      C39           -28.7906691396      -51.1247346485        6.5182423756  MEMB      152             0.0000000000
     17534       152  POPE      H9X           -29.2946404472      -50.1384555183        6.6053476513  MEMB      152             0.0000000000
     17535       152  POPE      H9Y           -29.5169629404      -51.8261769439        6.0547808017  MEMB      152             0.0000000000
     17536       152  POPE      C310          -27.6042181942      -50.9569301618        5.5461700688  MEMB      152             0.0000000000
     17537       152  POPE      H10X          -27.1719042895      -51.9779003962        5.4751389039  MEMB      152             0.0000000000
     17538       152  POPE      H10Y          -26.8990597065      -50.2231660944        5.9918862564  MEMB      152             0.0000000000
     17539       152  POPE      C311          -27.8790887463      -50.4114501476        4.0935925378  MEMB      152             0.0000000000
     17540       152  POPE      H11X          -26.9045220014      -50.1742532096        3.6158078401  MEMB      152             0.0000000000
     17541       152  POPE      H11Y          -28.5176607098      -49.5047376015        4.1600703676  MEMB      152             0.0000000000
     17542       152  POPE      C312          -28.5610069989      -51.5385376320        3.2296462779  MEMB      152             0.0000000000
     17543       152  POPE      H12X          -29.3539704664      -51.8235091803        3.9537470091  MEMB      152             0.0000000000
     17544       152  POPE      H12Y          -27.8721897321      -52.4044935023        3.1297861397  MEMB      152             0.0000000000
     17545       152  POPE      C313          -29.0822904205      -51.1324168024        1.8569728279  MEMB      152             0.0000000000
     17546       152  POPE      H13X          -29.7590453287      -50.2514231119        1.8701684457  MEMB      152             0.0000000000
     17547       152  POPE      H13Y          -29.8224216942      -51.9337101577        1.6461239707  MEMB      152             0.0000000000
     17548       152  POPE      C314          -27.9461895682      -50.8911222465        0.8694960276  MEMB      152             0.0000000000
     17549       152  POPE      H14X          -27.3669750932      -50.0495728426        1.3061041815  MEMB      152             0.0000000000
     17550       152  POPE      H14Y          -28.3365532754      -50.5999609725       -0.1290836135  MEMB      152             0.0000000000
     17551       152  POPE      C315          -26.9941317441      -51.9576654328        0.4584104443  MEMB      152             0.0000000000
     17552       152  POPE      H15X          -27.6673156834      -52.6804841822       -0.0501929347  MEMB      152             0.0000000000
     17553       152  POPE      H15Y          -26.5353710708      -52.4895976559        1.3191709659  MEMB      152             0.0000000000
     17554       152  POPE      C316          -26.0722827262      -51.4962073337       -0.7670655603  MEMB      152             0.0000000000
     17555       152  POPE      H16X          -26.6329964422      -51.7832320600       -1.6822376772  MEMB      152             0.0000000000
     17556       152  POPE      H16Y          -25.0179667823      -51.8343124276       -0.6752809065  MEMB      152             0.0000000000
     17557       152  POPE      H16Z          -25.9945329496      -50.3904472127       -0.6924288839  MEMB      152             0.0000000000
     17558       153  POPC      N              35.5886187886      -34.4962295819       19.9700723492  MEMB      153             0.0000000000
     17559       153  POPC      C12            35.6796340741      -34.1428014374       18.4434236658  MEMB      153             0.0000000000
     17560       153  POPC      H12A           35.4438953949      -34.9950699877       17.8233708478  MEMB      153             0.0000000000
     17561       153  POPC      H12B           36.6944058045      -33.8230687254       18.2579263365  MEMB      153             0.0000000000
     17562       153  POPC      C13            36.0748894975      -33.3864558724       20.7903786151  MEMB      153             0.0000000000
     17563       153  POPC      H13A           37.1098237625      -33.1271247620       20.6228723514  MEMB      153             0.0000000000
     17564       153  POPC      H13B           35.4877803334      -32.5090593518       20.5626109025  MEMB      153             0.0000000000
     17565       153  POPC      H13C           35.9465176401      -33.7355514002       21.8043080479  MEMB      153             0.0000000000
     17566       153  POPC      C14            34.1116452245      -34.6764108656       20.2157771974  MEMB      153             0.0000000000
     17567       153  POPC      H14A           33.5207816429      -33.7895624986       20.0403344913  MEMB      153             0.0000000000
     17568       153  POPC      H14B           33.7496611998      -35.5479847065       19.6906803650  MEMB      153             0.0000000000
     17569       153  POPC      H14C           34.0154284546      -34.8662755671       21.2745944212  MEMB      153             0.0000000000
     17570       153  POPC      C15            36.3540212335      -35.6884940505       20.2971202813  MEMB      153             0.0000000000
     17571       153  POPC      H15A           36.4455106018      -35.6487217321       21.3725030125  MEMB      153             0.0000000000
     17572       153  POPC      H15B           37.3320398392      -35.4978141333       19.8805622732  MEMB      153             0.0000000000
     17573       153  POPC      H15C           35.9160420802      -36.6190659636       19.9675597413  MEMB      153             0.0000000000
     17574       153  POPC      C11            34.6928630172      -33.1122879925       17.9351372360  MEMB      153             0.0000000000
     17575       153  POPC      H11A           33.6360898099      -33.4530399888       17.8971975166  MEMB      153             0.0000000000
     17576       153  POPC      H11B           34.8670783158      -32.9859417680       16.8451801236  MEMB      153             0.0000000000
     17577       153  POPC      P              34.2075944133      -30.5302476051       18.3149163722  MEMB      153             0.0000000000
     17578       153  POPC      O13            34.4986554653      -29.5522556992       19.3666344477  MEMB      153             0.0000000000
     17579       153  POPC      O14            32.8013453383      -30.7931815256       18.0094539157  MEMB      153             0.0000000000
     17580       153  POPC      O12            34.8943021601      -31.9323205424       18.6690336254  MEMB      153             0.0000000000
     17581       153  POPC      O11            35.1144024702      -30.2011685655       16.9880522958  MEMB      153             0.0000000000
     17582       153  POPC      C1             34.9373857914      -28.9948291499       16.3391243780  MEMB      153             0.0000000000
     17583       153  POPC      HA             35.7946008072      -28.3032508193       16.4848052988  MEMB      153             0.0000000000
     17584       153  POPC      HB             33.9677618876      -28.5438861362       16.6404567211  MEMB      153             0.0000000000
     17585       153  POPC      C2             35.0737566988      -29.3859865109       14.8674079483  MEMB      153             0.0000000000
     17586       153  POPC      HS             34.7355593805      -28.5305672200       14.2443495548  MEMB      153             0.0000000000
     17587       153  POPC      O21            34.4028151952      -30.5613094031       14.4270265704  MEMB      153             0.0000000000
     17588       153  POPC      C21            33.3222004148      -30.6507630655       13.6526896923  MEMB      153             0.0000000000
     17589       153  POPC      O22            32.8815729321      -29.7250243986       13.0609641853  MEMB      153             0.0000000000
     17590       153  POPC      C22            32.6707613650      -32.0356341695       13.4801832397  MEMB      153             0.0000000000
     17591       153  POPC      H2R            31.6887974134      -32.0048364184       12.9614159665  MEMB      153             0.0000000000
     17592       153  POPC      H2S            32.5850194691      -32.4560525145       14.5049847649  MEMB      153             0.0000000000
     17593       153  POPC      C3             36.5608749912      -29.5943726140       14.5323975807  MEMB      153             0.0000000000
     17594       153  POPC      HX             36.9816322385      -30.4847839885       15.0466464515  MEMB      153             0.0000000000
     17595       153  POPC      HY             36.9413893990      -28.6969282398       15.0654296729  MEMB      153             0.0000000000
     17596       153  POPC      O31            36.7748737909      -29.6660103993       13.1414106366  MEMB      153             0.0000000000
     17597       153  POPC      C31            37.2147042385      -30.8042830942       12.6062219074  MEMB      153             0.0000000000
     17598       153  POPC      O32            37.6070325607      -31.7703931228       13.2735796727  MEMB      153             0.0000000000
     17599       153  POPC      C32            36.9517218858      -30.7409216481       11.0480096055  MEMB      153             0.0000000000
     17600       153  POPC      H2X            37.5591859744      -29.9397951560       10.5752471275  MEMB      153             0.0000000000
     17601       153  POPC      H2Y            35.8943915881      -30.5364062808       10.7749761539  MEMB      153             0.0000000000
     17602       153  POPC      C23            33.7366403707      -32.9524868488       12.6351357397  MEMB      153             0.0000000000
     17603       153  POPC      H3R            34.7441805149      -32.7905274502       13.0743997693  MEMB      153             0.0000000000
     17604       153  POPC      H3S            33.6936796813      -32.6110695944       11.5787694461  MEMB      153             0.0000000000
     17605       153  POPC      C24            33.1864284648      -34.4304916410       12.6566006236  MEMB      153             0.0000000000
     17606       153  POPC      H4R            32.8147492142      -34.7379250028       13.6574306974  MEMB      153             0.0000000000
     17607       153  POPC      H4S            34.0864112657      -35.0286701406       12.3986581172  MEMB      153             0.0000000000
     17608       153  POPC      C25            32.1736736082      -34.8096691778       11.5993915996  MEMB      153             0.0000000000
     17609       153  POPC      H5R            31.3258818351      -34.0922313967       11.5701881279  MEMB      153             0.0000000000
     17610       153  POPC      H5S            31.7684559851      -35.8373818476       11.7174036618  MEMB      153             0.0000000000
     17611       153  POPC      C26            32.7673546443      -34.8713298580       10.1719777487  MEMB      153             0.0000000000
     17612       153  POPC      H6R            33.2470312886      -33.9328215890        9.8206469446  MEMB      153             0.0000000000
     17613       153  POPC      H6S            31.8561757182      -34.9921752634        9.5479026154  MEMB      153             0.0000000000
     17614       153  POPC      C27            33.7341472079      -36.1030786489        9.9997184799  MEMB      153             0.0000000000
     17615       153  POPC      H7R            33.3728949103      -37.1195144532       10.2655667874  MEMB      153             0.0000000000
     17616       153  POPC      H7S            34.6286006739      -35.7661039004       10.5660412254  MEMB      153             0.0000000000
     17617       153  POPC      C28            34.1387804371      -36.3029185861        8.4935379882  MEMB      153             0.0000000000
     17618       153  POPC      H8R            33.3541495761      -36.9238866204        8.0107607824  MEMB      153             0.0000000000
     17619       153  POPC      H8S            35.0276399978      -36.9647771966        8.4148438256  MEMB      153             0.0000000000
     17620       153  POPC      C29            34.5536373202      -35.0776455193        7.6618180280  MEMB      153             0.0000000000
     17621       153  POPC      H91            35.5669147722      -34.7036682272        7.8701683398  MEMB      153             0.0000000000
     17622       153  POPC      C210           33.9020242468      -34.3779861175        6.6939802401  MEMB      153             0.0000000000
     17623       153  POPC      H101           34.3759110089      -33.5430548917        6.1570244991  MEMB      153             0.0000000000
     17624       153  POPC      C211           32.4798345076      -34.6660362558        6.1618604394  MEMB      153             0.0000000000
     17625       153  POPC      H11R           32.0468658582      -35.5907339238        6.5998028175  MEMB      153             0.0000000000
     17626       153  POPC      H11S           32.3984511884      -34.7718963595        5.0589140855  MEMB      153             0.0000000000
     17627       153  POPC      C212           31.5757473794      -33.3595947779        6.4375015872  MEMB      153             0.0000000000
     17628       153  POPC      H12R           31.4015436024      -33.2788394072        7.5317836499  MEMB      153             0.0000000000
     17629       153  POPC      H12S           30.5360654813      -33.5682330927        6.1060620324  MEMB      153             0.0000000000
     17630       153  POPC      C213           32.2060371832      -32.0311809291        5.9138894723  MEMB      153             0.0000000000
     17631       153  POPC      H13R           33.1763360604      -31.6804890594        6.3260256217  MEMB      153             0.0000000000
     17632       153  POPC      H13S           31.4542291395      -31.2463353879        6.1443740478  MEMB      153             0.0000000000
     17633       153  POPC      C214           32.2479164680      -32.0081653513        4.3446807839  MEMB      153             0.0000000000
     17634       153  POPC      H14R           31.2994916308      -32.4175856979        3.9357963474  MEMB      153             0.0000000000
     17635       153  POPC      H14S           33.0560937795      -32.7352107069        4.1153875496  MEMB      153             0.0000000000
     17636       153  POPC      C215           32.5319280012      -30.6695224115        3.6843247918  MEMB      153             0.0000000000
     17637       153  POPC      H15R           33.3004336227      -30.2624401277        4.3757034035  MEMB      153             0.0000000000
     17638       153  POPC      H15S           31.7185654855      -29.9192415425        3.7835267803  MEMB      153             0.0000000000
     17639       153  POPC      C216           33.0796858937      -30.8498772838        2.2605932563  MEMB      153             0.0000000000
     17640       153  POPC      H16R           32.2574645724      -31.3119376563        1.6734191267  MEMB      153             0.0000000000
     17641       153  POPC      H16S           33.8843108588      -31.6158869134        2.2492291221  MEMB      153             0.0000000000
     17642       153  POPC      C217           33.5542171716      -29.6567778139        1.4788723554  MEMB      153             0.0000000000
     17643       153  POPC      H17R           33.9771487687      -29.9763648819        0.5024927419  MEMB      153             0.0000000000
     17644       153  POPC      H17S           34.3590715059      -29.3198036398        2.1666065045  MEMB      153             0.0000000000
     17645       153  POPC      C218           32.4658450736      -28.5875065713        1.1893878150  MEMB      153             0.0000000000
     17646       153  POPC      H18R           32.8392009222      -27.7024017915        0.6312513642  MEMB      153             0.0000000000
     17647       153  POPC      H18S           31.9659167540      -28.1695058618        2.0892039820  MEMB      153             0.0000000000
     17648       153  POPC      H18T           31.6115098451      -28.9472253699        0.5769868731  MEMB      153             0.0000000000
     17649       153  POPC      C33            37.2383569090      -32.1174660624       10.5283047786  MEMB      153             0.0000000000
     17650       153  POPC      H3X            36.5987927687      -32.8361608501       11.0839629395  MEMB      153             0.0000000000
     17651       153  POPC      H3Y            38.2472460972      -32.3983897843       10.8991759802  MEMB      153             0.0000000000
     17652       153  POPC      C34            37.0484846003      -32.2833882462        8.9854923186  MEMB      153             0.0000000000
     17653       153  POPC      H4X            36.0533750965      -31.8887777472        8.6882374244  MEMB      153             0.0000000000
     17654       153  POPC      H4Y            37.0001058005      -33.3704118388        8.7610814040  MEMB      153             0.0000000000
     17655       153  POPC      C35            38.1880588152      -31.5141547614        8.2030219671  MEMB      153             0.0000000000
     17656       153  POPC      H5X            39.1853690251      -31.9159632839        8.4827413180  MEMB      153             0.0000000000
     17657       153  POPC      H5Y            38.0719512127      -30.4125111943        8.2880011816  MEMB      153             0.0000000000
     17658       153  POPC      C36            38.0889351086      -31.7555081184        6.6601337557  MEMB      153             0.0000000000
     17659       153  POPC      H6X            38.1286925050      -32.8138932845        6.3246320407  MEMB      153             0.0000000000
     17660       153  POPC      H6Y            39.0243605016      -31.2463931633        6.3437448474  MEMB      153             0.0000000000
     17661       153  POPC      C37            36.8837346667      -31.0288789552        6.0463104855  MEMB      153             0.0000000000
     17662       153  POPC      H7X            36.8165316712      -30.0553858533        6.5774559007  MEMB      153             0.0000000000
     17663       153  POPC      H7Y            35.9259310717      -31.5289673862        6.3048545241  MEMB      153             0.0000000000
     17664       153  POPC      C38            36.9039897022      -30.9582831267        4.5331942445  MEMB      153             0.0000000000
     17665       153  POPC      H8X            36.0540023076      -30.3905996259        4.0977890956  MEMB      153             0.0000000000
     17666       153  POPC      H8Y            37.0055261871      -31.9932518531        4.1422325745  MEMB      153             0.0000000000
     17667       153  POPC      C39            38.0763670561      -30.1673628611        3.8325682146  MEMB      153             0.0000000000
     17668       153  POPC      H9X            39.0080572800      -30.7410093160        4.0254521102  MEMB      153             0.0000000000
     17669       153  POPC      H9Y            38.0431313116      -29.1679778739        4.3167635643  MEMB      153             0.0000000000
     17670       153  POPC      C310           38.0212809300      -29.9315481503        2.2900999006  MEMB      153             0.0000000000
     17671       153  POPC      H10X           38.8027950521      -29.1892239155        2.0208205996  MEMB      153             0.0000000000
     17672       153  POPC      H10Y           37.0646060275      -29.3961429507        2.1100007208  MEMB      153             0.0000000000
     17673       153  POPC      C311           37.9182470295      -31.2264046445        1.4793249086  MEMB      153             0.0000000000
     17674       153  POPC      H11X           37.0261688506      -31.8393664390        1.7299139655  MEMB      153             0.0000000000
     17675       153  POPC      H11Y           38.7874988013      -31.8338793453        1.8105298321  MEMB      153             0.0000000000
     17676       153  POPC      C312           37.9311964703      -30.9560408902       -0.1159947458  MEMB      153             0.0000000000
     17677       153  POPC      H12X           38.6221638823      -31.6414368730       -0.6518278609  MEMB      153             0.0000000000
     17678       153  POPC      H12Y           38.3284146460      -29.9335657705       -0.2922987224  MEMB      153             0.0000000000
     17679       153  POPC      C313           36.5939597621      -30.8939366295       -0.8094355296  MEMB      153             0.0000000000
     17680       153  POPC      H13X           36.6967374130      -30.6589959638       -1.8904357141  MEMB      153             0.0000000000
     17681       153  POPC      H13Y           35.9469281599      -30.1314898289       -0.3253429615  MEMB      153             0.0000000000
     17682       153  POPC      C314           35.6606509708      -32.2084645168       -0.6749106418  MEMB      153             0.0000000000
     17683       153  POPC      H14X           34.7002568869      -31.9561125987       -1.1731899058  MEMB      153             0.0000000000
     17684       153  POPC      H14Y           35.4787406915      -32.4050863628        0.4033144007  MEMB      153             0.0000000000
     17685       153  POPC      C315           36.2322958129      -33.4687167808       -1.3410509197  MEMB      153             0.0000000000
     17686       153  POPC      H15X           37.2735620664      -33.5466804498       -0.9615675063  MEMB      153             0.0000000000
     17687       153  POPC      H15Y           36.2197529699      -33.1689848904       -2.4107823742  MEMB      153             0.0000000000
     17688       153  POPC      C316           35.4690320965      -34.7118509456       -1.0270140545  MEMB      153             0.0000000000
     17689       153  POPC      H16X           34.3729031499      -34.6373320001       -1.1921481120  MEMB      153             0.0000000000
     17690       153  POPC      H16Y           35.5942014625      -35.0485664182        0.0243068245  MEMB      153             0.0000000000
     17691       153  POPC      H16Z           35.8101215619      -35.5684219589       -1.6469057914  MEMB      153             0.0000000000
     17692       154  POPC      N             -52.4341736280      -11.9035432411       21.3061700763  MEMB      154             0.0000000000
     17693       154  POPC      C12           -51.3761990525      -11.4600395442       20.3066628612  MEMB      154             0.0000000000
     17694       154  POPC      H12A          -50.3965255666      -11.5174128320       20.7576042256  MEMB      154             0.0000000000
     17695       154  POPC      H12B          -51.6062508157      -10.4276843481       20.0882166780  MEMB      154             0.0000000000
     17696       154  POPC      C13           -52.1935947592      -11.3998297008       22.7004927769  MEMB      154             0.0000000000
     17697       154  POPC      H13A          -51.3933467238      -12.0184815828       23.0790069130  MEMB      154             0.0000000000
     17698       154  POPC      H13B          -51.6875949220      -10.4462738114       22.6673971525  MEMB      154             0.0000000000
     17699       154  POPC      H13C          -53.0916669176      -11.3439988251       23.2977775822  MEMB      154             0.0000000000
     17700       154  POPC      C14           -53.8257898136      -11.3048706784       20.8360702772  MEMB      154             0.0000000000
     17701       154  POPC      H14A          -53.6465368338      -10.2523895842       20.6731229574  MEMB      154             0.0000000000
     17702       154  POPC      H14B          -54.0103890270      -11.7862448055       19.8870697223  MEMB      154             0.0000000000
     17703       154  POPC      H14C          -54.5515237457      -11.5430451045       21.5996035406  MEMB      154             0.0000000000
     17704       154  POPC      C15           -52.4976470914      -13.3718615872       21.3537191350  MEMB      154             0.0000000000
     17705       154  POPC      H15A          -52.8161994345      -13.8503579151       20.4394075078  MEMB      154             0.0000000000
     17706       154  POPC      H15B          -53.2639576127      -13.5994881103       22.0799107856  MEMB      154             0.0000000000
     17707       154  POPC      H15C          -51.5556080023      -13.7436005062       21.7289158046  MEMB      154             0.0000000000
     17708       154  POPC      C11           -51.2241693962      -12.1627002782       18.9661752985  MEMB      154             0.0000000000
     17709       154  POPC      H11A          -50.8080413335      -13.1649515500       19.2041894192  MEMB      154             0.0000000000
     17710       154  POPC      H11B          -50.3930501371      -11.6343177432       18.4520026453  MEMB      154             0.0000000000
     17711       154  POPC      P             -52.3581399696      -12.8110279790       16.6545138182  MEMB      154             0.0000000000
     17712       154  POPC      O13           -52.3048704877      -14.2737023292       16.8218428050  MEMB      154             0.0000000000
     17713       154  POPC      O14           -51.3025309101      -12.0395583375       15.9326423296  MEMB      154             0.0000000000
     17714       154  POPC      O12           -52.4286532164      -12.1275711880       18.1567722480  MEMB      154             0.0000000000
     17715       154  POPC      O11           -53.7613648096      -12.4410623711       15.9649383734  MEMB      154             0.0000000000
     17716       154  POPC      C1            -54.8627056625      -11.8648409780       16.6836181514  MEMB      154             0.0000000000
     17717       154  POPC      HA            -54.4632314963      -10.9367219662       17.1455016394  MEMB      154             0.0000000000
     17718       154  POPC      HB            -55.0692765453      -12.5237238268       17.5539760594  MEMB      154             0.0000000000
     17719       154  POPC      C2            -56.0532799074      -11.5329229386       15.7699005764  MEMB      154             0.0000000000
     17720       154  POPC      HS            -56.9247301186      -11.5296825460       16.4590193994  MEMB      154             0.0000000000
     17721       154  POPC      O21           -56.1469452378      -12.5216399785       14.7106832947  MEMB      154             0.0000000000
     17722       154  POPC      C21           -56.2978700131      -13.7834779193       15.0546923228  MEMB      154             0.0000000000
     17723       154  POPC      O22           -56.6558967257      -14.2282628263       16.1292871430  MEMB      154             0.0000000000
     17724       154  POPC      C22           -55.9914391604      -14.6993432818       13.8755669326  MEMB      154             0.0000000000
     17725       154  POPC      H2R           -56.5808992817      -14.4763596563       12.9606156867  MEMB      154             0.0000000000
     17726       154  POPC      H2S           -56.3323164621      -15.7146309574       14.1710572817  MEMB      154             0.0000000000
     17727       154  POPC      C3            -56.0209747016      -10.1766814228       14.9936873310  MEMB      154             0.0000000000
     17728       154  POPC      HX            -56.0415784576       -9.4094750786       15.7969873538  MEMB      154             0.0000000000
     17729       154  POPC      HY            -56.9663845124      -10.1491881742       14.4107934497  MEMB      154             0.0000000000
     17730       154  POPC      O31           -54.8047050400      -10.0842028252       14.2347259386  MEMB      154             0.0000000000
     17731       154  POPC      C31           -54.8951750488       -9.8781517281       12.9260176663  MEMB      154             0.0000000000
     17732       154  POPC      O32           -55.9201791297       -9.4245999534       12.3498845102  MEMB      154             0.0000000000
     17733       154  POPC      C32           -53.6233943253      -10.3239615010       12.2703653459  MEMB      154             0.0000000000
     17734       154  POPC      H2X           -53.6457928017      -11.4344585566       12.2951758819  MEMB      154             0.0000000000
     17735       154  POPC      H2Y           -52.7475793447      -10.0419941265       12.8930715781  MEMB      154             0.0000000000
     17736       154  POPC      C23           -54.4632984482      -14.6782558145       13.5774644520  MEMB      154             0.0000000000
     17737       154  POPC      H3R           -53.8550233839      -14.9004132829       14.4802202653  MEMB      154             0.0000000000
     17738       154  POPC      H3S           -54.2928305357      -13.6165748399       13.2980089279  MEMB      154             0.0000000000
     17739       154  POPC      C24           -54.0629806492      -15.5954324019       12.3876310746  MEMB      154             0.0000000000
     17740       154  POPC      H4R           -54.5437493286      -15.0655845613       11.5376639193  MEMB      154             0.0000000000
     17741       154  POPC      H4S           -54.3943718700      -16.6530364261       12.4649276562  MEMB      154             0.0000000000
     17742       154  POPC      C25           -52.4964640207      -15.8686634942       12.2218611582  MEMB      154             0.0000000000
     17743       154  POPC      H5R           -52.2950794752      -16.5104148212       11.3375980411  MEMB      154             0.0000000000
     17744       154  POPC      H5S           -52.0622247761      -16.3910804386       13.1009729508  MEMB      154             0.0000000000
     17745       154  POPC      C26           -51.6573393115      -14.5689041085       11.8175761504  MEMB      154             0.0000000000
     17746       154  POPC      H6R           -51.6215147970      -13.8313902502       12.6477032504  MEMB      154             0.0000000000
     17747       154  POPC      H6S           -52.0967649914      -14.0874884669       10.9178734482  MEMB      154             0.0000000000
     17748       154  POPC      C27           -50.2671823613      -14.8306377652       11.3647745016  MEMB      154             0.0000000000
     17749       154  POPC      H7R           -50.4625859827      -15.4025912547       10.4325688644  MEMB      154             0.0000000000
     17750       154  POPC      H7S           -49.6692746539      -15.4056990209       12.1037817057  MEMB      154             0.0000000000
     17751       154  POPC      C28           -49.4873250665      -13.5389658973       11.0129637849  MEMB      154             0.0000000000
     17752       154  POPC      H8R           -49.3657782661      -13.1201991130       12.0348159498  MEMB      154             0.0000000000
     17753       154  POPC      H8S           -50.2766467301      -12.8890987365       10.5782629612  MEMB      154             0.0000000000
     17754       154  POPC      C29           -48.3552287689      -13.4965934096       10.0090983016  MEMB      154             0.0000000000
     17755       154  POPC      H91           -47.3380043381      -13.6200132690       10.4091261943  MEMB      154             0.0000000000
     17756       154  POPC      C210          -48.4723920865      -13.5082381667        8.6722496641  MEMB      154             0.0000000000
     17757       154  POPC      H101          -47.5756449600      -13.7148191978        8.0696151600  MEMB      154             0.0000000000
     17758       154  POPC      C211          -49.7535363108      -13.5877676597        7.8649566739  MEMB      154             0.0000000000
     17759       154  POPC      H11R          -50.2613306064      -12.6259542184        8.0916314980  MEMB      154             0.0000000000
     17760       154  POPC      H11S          -50.4666463785      -14.3827944075        8.1711062650  MEMB      154             0.0000000000
     17761       154  POPC      C212          -49.6560616411      -13.8319396548        6.3939300574  MEMB      154             0.0000000000
     17762       154  POPC      H12R          -49.2241642615      -14.8325035435        6.1779263450  MEMB      154             0.0000000000
     17763       154  POPC      H12S          -49.0582692689      -13.0510854405        5.8769852304  MEMB      154             0.0000000000
     17764       154  POPC      C213          -51.0618092208      -13.9258318243        5.5958036998  MEMB      154             0.0000000000
     17765       154  POPC      H13R          -51.3937906824      -12.8745335321        5.7332105533  MEMB      154             0.0000000000
     17766       154  POPC      H13S          -51.7229279329      -14.5610056531        6.2233356457  MEMB      154             0.0000000000
     17767       154  POPC      C214          -51.0330118378      -14.4225196383        4.1465762909  MEMB      154             0.0000000000
     17768       154  POPC      H14R          -52.1216308894      -14.4759008116        3.9312170232  MEMB      154             0.0000000000
     17769       154  POPC      H14S          -50.6480306636      -15.4518263124        3.9833632678  MEMB      154             0.0000000000
     17770       154  POPC      C215          -50.3988537832      -13.4598000691        3.1762032882  MEMB      154             0.0000000000
     17771       154  POPC      H15R          -49.2969586669      -13.5033770614        3.3112919622  MEMB      154             0.0000000000
     17772       154  POPC      H15S          -50.6975954375      -12.4269332945        3.4559540836  MEMB      154             0.0000000000
     17773       154  POPC      C216          -50.6700212803      -13.6820936581        1.6905484636  MEMB      154             0.0000000000
     17774       154  POPC      H16R          -51.7638488914      -13.5352222069        1.5629142386  MEMB      154             0.0000000000
     17775       154  POPC      H16S          -50.4640731471      -14.7459340403        1.4452953519  MEMB      154             0.0000000000
     17776       154  POPC      C217          -49.9295852826      -12.9059387297        0.5143108672  MEMB      154             0.0000000000
     17777       154  POPC      H17R          -50.1990938790      -13.4003814280       -0.4434023603  MEMB      154             0.0000000000
     17778       154  POPC      H17S          -48.8219997928      -12.8716754927        0.5943214955  MEMB      154             0.0000000000
     17779       154  POPC      C218          -50.4200282984      -11.4383866084        0.3585706087  MEMB      154             0.0000000000
     17780       154  POPC      H18R          -50.3681291360      -10.8556058578        1.3030254125  MEMB      154             0.0000000000
     17781       154  POPC      H18S          -51.4568040931      -11.4157987146       -0.0400584655  MEMB      154             0.0000000000
     17782       154  POPC      H18T          -49.7021836684      -10.9413932058       -0.3284645542  MEMB      154             0.0000000000
     17783       154  POPC      C33           -53.5154689979       -9.6632309465       10.9254753789  MEMB      154             0.0000000000
     17784       154  POPC      H3X           -53.2991245007       -8.5973981825       11.1524481066  MEMB      154             0.0000000000
     17785       154  POPC      H3Y           -54.5135701481       -9.7037359979       10.4391892099  MEMB      154             0.0000000000
     17786       154  POPC      C34           -52.5270172820      -10.2291481196        9.9025734288  MEMB      154             0.0000000000
     17787       154  POPC      H4X           -51.4846406362      -10.2643529831       10.2853695505  MEMB      154             0.0000000000
     17788       154  POPC      H4Y           -52.5355270266       -9.5374819212        9.0331792944  MEMB      154             0.0000000000
     17789       154  POPC      C35           -52.8398245019      -11.6558255439        9.3087664167  MEMB      154             0.0000000000
     17790       154  POPC      H5X           -52.3819235620      -12.3795866658       10.0164504343  MEMB      154             0.0000000000
     17791       154  POPC      H5Y           -52.2547294536      -11.8343365948        8.3813401969  MEMB      154             0.0000000000
     17792       154  POPC      C36           -54.3338007114      -11.9736623685        8.9234562050  MEMB      154             0.0000000000
     17793       154  POPC      H6X           -54.9368782497      -11.9770935097        9.8565195825  MEMB      154             0.0000000000
     17794       154  POPC      H6Y           -54.4529158074      -13.0207516133        8.5716937474  MEMB      154             0.0000000000
     17795       154  POPC      C37           -55.0584465930      -11.0828988062        7.8665578658  MEMB      154             0.0000000000
     17796       154  POPC      H7X           -54.9167516445      -10.0174212728        8.1476291799  MEMB      154             0.0000000000
     17797       154  POPC      H7Y           -56.1603140107      -11.2061006583        7.7956337133  MEMB      154             0.0000000000
     17798       154  POPC      C38           -54.5516202021      -11.3364924321        6.4433201385  MEMB      154             0.0000000000
     17799       154  POPC      H8X           -53.6125511277      -11.9292484841        6.4766503430  MEMB      154             0.0000000000
     17800       154  POPC      H8Y           -54.2647946715      -10.3509397302        6.0181872721  MEMB      154             0.0000000000
     17801       154  POPC      C39           -55.5625763017      -12.0966479055        5.5720056887  MEMB      154             0.0000000000
     17802       154  POPC      H9X           -56.4768187886      -11.4885091328        5.4027457930  MEMB      154             0.0000000000
     17803       154  POPC      H9Y           -55.8938775560      -13.0305292814        6.0744261014  MEMB      154             0.0000000000
     17804       154  POPC      C310          -54.9427706413      -12.4587565517        4.1778424472  MEMB      154             0.0000000000
     17805       154  POPC      H10X          -53.9111450402      -12.8332998827        4.3504319145  MEMB      154             0.0000000000
     17806       154  POPC      H10Y          -54.9422327659      -11.4618519210        3.6874329843  MEMB      154             0.0000000000
     17807       154  POPC      C311          -55.8556557192      -13.5397780057        3.3442576580  MEMB      154             0.0000000000
     17808       154  POPC      H11X          -56.9334011112      -13.3180676328        3.1905360299  MEMB      154             0.0000000000
     17809       154  POPC      H11Y          -55.7201882481      -14.4817031874        3.9176215039  MEMB      154             0.0000000000
     17810       154  POPC      C312          -55.1658661027      -13.7556714156        2.0094547833  MEMB      154             0.0000000000
     17811       154  POPC      H12X          -55.2523263927      -14.8047089058        1.6539745861  MEMB      154             0.0000000000
     17812       154  POPC      H12Y          -54.0930766939      -13.5078294362        2.1578379965  MEMB      154             0.0000000000
     17813       154  POPC      C313          -55.9016404706      -12.9512509468        0.8556232696  MEMB      154             0.0000000000
     17814       154  POPC      H13X          -56.9652389707      -13.2611627388        0.7717568792  MEMB      154             0.0000000000
     17815       154  POPC      H13Y          -55.4746115719      -13.1684107037       -0.1467778168  MEMB      154             0.0000000000
     17816       154  POPC      C314          -55.8486824838      -11.4052870557        0.9201588322  MEMB      154             0.0000000000
     17817       154  POPC      H14X          -56.1473526354      -11.0158631182        1.9168873212  MEMB      154             0.0000000000
     17818       154  POPC      H14Y          -56.5143367209      -10.9450815753        0.1589524471  MEMB      154             0.0000000000
     17819       154  POPC      C315          -54.3973009149      -10.9641155385        0.6168751113  MEMB      154             0.0000000000
     17820       154  POPC      H15X          -54.1090614740      -11.5170739719       -0.3026223573  MEMB      154             0.0000000000
     17821       154  POPC      H15Y          -53.6276398439      -11.2992468597        1.3446313112  MEMB      154             0.0000000000
     17822       154  POPC      C316          -54.1666982487       -9.4479358041        0.5209315766  MEMB      154             0.0000000000
     17823       154  POPC      H16X          -53.1421926768       -9.0904314053        0.2823957531  MEMB      154             0.0000000000
     17824       154  POPC      H16Y          -54.4056585241       -8.9222088223        1.4700516938  MEMB      154             0.0000000000
     17825       154  POPC      H16Z          -54.8566429001       -9.0361872492       -0.2463752275  MEMB      154             0.0000000000
     17826       155  POPE      N             -47.6423486843      -23.2622032902       18.9407706488  MEMB      155             0.0000000000
     17827       155  POPE      HN1           -47.2577915411      -23.0809534236       17.9916318812  MEMB      155             0.0000000000
     17828       155  POPE      HN2           -48.6099287309      -23.6194744356       18.8075559033  MEMB      155             0.0000000000
     17829       155  POPE      HN3           -47.6841293198      -22.3741617884       19.4804341811  MEMB      155             0.0000000000
     17830       155  POPE      C12           -46.8362047458      -24.3247144816       19.5153925160  MEMB      155             0.0000000000
     17831       155  POPE      H12A          -46.9964948531      -25.2253755363       18.8849657661  MEMB      155             0.0000000000
     17832       155  POPE      H12B          -47.1240769182      -24.5091789944       20.5724750151  MEMB      155             0.0000000000
     17833       155  POPE      C11           -45.3560278811      -23.8336448453       19.4967420667  MEMB      155             0.0000000000
     17834       155  POPE      H11A          -45.2783633101      -22.9961467831       20.2226113810  MEMB      155             0.0000000000
     17835       155  POPE      H11B          -45.1077550384      -23.4512436335       18.4836028848  MEMB      155             0.0000000000
     17836       155  POPE      P             -44.2232062145      -26.0943434480       18.8253006332  MEMB      155             0.0000000000
     17837       155  POPE      O13           -44.7634996225      -27.3962743050       19.2523398408  MEMB      155             0.0000000000
     17838       155  POPE      O14           -42.7630305307      -26.0117341891       18.5876357782  MEMB      155             0.0000000000
     17839       155  POPE      O11           -44.8973042521      -25.6980668136       17.4939921881  MEMB      155             0.0000000000
     17840       155  POPE      O12           -44.5277172291      -24.9239673925       19.8878263243  MEMB      155             0.0000000000
     17841       155  POPE      C1            -44.2743280691      -25.8669677694       16.2166322870  MEMB      155             0.0000000000
     17842       155  POPE      HA            -43.9017083540      -26.9018433199       16.0600811226  MEMB      155             0.0000000000
     17843       155  POPE      HB            -43.3497370019      -25.2522250023       16.1773413136  MEMB      155             0.0000000000
     17844       155  POPE      C2            -45.3014558651      -25.4346063347       15.0912503842  MEMB      155             0.0000000000
     17845       155  POPE      HS            -44.8251692339      -25.6718208377       14.1159549683  MEMB      155             0.0000000000
     17846       155  POPE      O21           -45.7259651794      -24.0873266294       15.1851233951  MEMB      155             0.0000000000
     17847       155  POPE      C21           -44.8424458342      -23.0342706657       15.2819813578  MEMB      155             0.0000000000
     17848       155  POPE      O22           -43.6453325387      -23.1460897027       15.3643682953  MEMB      155             0.0000000000
     17849       155  POPE      C22           -45.5832524457      -21.6891094882       15.4472918153  MEMB      155             0.0000000000
     17850       155  POPE      H2R           -44.8044371990      -20.9630502800       15.7644761179  MEMB      155             0.0000000000
     17851       155  POPE      H2S           -46.4238270542      -21.6962792564       16.1737241386  MEMB      155             0.0000000000
     17852       155  POPE      C3            -46.6233524739      -26.2395365359       15.1923677636  MEMB      155             0.0000000000
     17853       155  POPE      HX            -46.9492756058      -26.2974079039       16.2529082143  MEMB      155             0.0000000000
     17854       155  POPE      HY            -46.4534844842      -27.2949229653       14.8896711059  MEMB      155             0.0000000000
     17855       155  POPE      O31           -47.6537191443      -25.7273510736       14.3325003416  MEMB      155             0.0000000000
     17856       155  POPE      C31           -48.8857212440      -26.0706848349       14.6341974808  MEMB      155             0.0000000000
     17857       155  POPE      O32           -49.1625263447      -26.6284555159       15.6983830937  MEMB      155             0.0000000000
     17858       155  POPE      C32           -49.8556755881      -25.5749191977       13.6267016357  MEMB      155             0.0000000000
     17859       155  POPE      H2X           -49.7391986097      -24.4957431883       13.3897776062  MEMB      155             0.0000000000
     17860       155  POPE      H2Y           -50.8783872313      -25.6389700797       14.0559794131  MEMB      155             0.0000000000
     17861       155  POPE      C23           -46.0044582347      -21.1621710907       14.1120639911  MEMB      155             0.0000000000
     17862       155  POPE      H3R           -45.2064330927      -21.2928803930       13.3502295102  MEMB      155             0.0000000000
     17863       155  POPE      H3S           -46.2374619242      -20.0799239318       14.2057212197  MEMB      155             0.0000000000
     17864       155  POPE      C24           -47.1146157929      -21.8181542675       13.4538571898  MEMB      155             0.0000000000
     17865       155  POPE      H4R           -48.0125754818      -21.4275793534       13.9786815097  MEMB      155             0.0000000000
     17866       155  POPE      H4S           -47.1643988839      -22.9184114281       13.5997223671  MEMB      155             0.0000000000
     17867       155  POPE      C25           -47.2563651165      -21.5956016943       11.8959232858  MEMB      155             0.0000000000
     17868       155  POPE      H5R           -47.1944243422      -20.4989901178       11.7288077483  MEMB      155             0.0000000000
     17869       155  POPE      H5S           -48.3162232861      -21.7789070043       11.6176773403  MEMB      155             0.0000000000
     17870       155  POPE      C26           -46.2565118905      -22.3963687629       11.0183606507  MEMB      155             0.0000000000
     17871       155  POPE      H6R           -45.2029094382      -22.0870923830       11.1874490759  MEMB      155             0.0000000000
     17872       155  POPE      H6S           -46.5876554493      -22.2474373709        9.9683677851  MEMB      155             0.0000000000
     17873       155  POPE      C27           -46.2552160979      -23.9130137668       11.3628629163  MEMB      155             0.0000000000
     17874       155  POPE      H7R           -47.3103838241      -24.1920987464       11.5703563874  MEMB      155             0.0000000000
     17875       155  POPE      H7S           -45.6703912362      -24.0032194313       12.3031629847  MEMB      155             0.0000000000
     17876       155  POPE      C28           -45.7295203399      -24.8299271429       10.2960614309  MEMB      155             0.0000000000
     17877       155  POPE      H8R           -46.3626450116      -24.6808558736        9.3953667008  MEMB      155             0.0000000000
     17878       155  POPE      H8S           -45.7614045074      -25.9209929242       10.5031365338  MEMB      155             0.0000000000
     17879       155  POPE      C29           -44.3173292956      -24.5431803307       10.0453388019  MEMB      155             0.0000000000
     17880       155  POPE      H91           -43.6338082077      -24.7554722750       10.8806417989  MEMB      155             0.0000000000
     17881       155  POPE      C210          -43.8327055151      -24.1054288775        8.8253596279  MEMB      155             0.0000000000
     17882       155  POPE      H101          -42.7531035460      -23.9190859735        8.7266886522  MEMB      155             0.0000000000
     17883       155  POPE      C211          -44.4738378240      -23.7810356050        7.4799254769  MEMB      155             0.0000000000
     17884       155  POPE      H11R          -43.8628787020      -23.1025814329        6.8468769032  MEMB      155             0.0000000000
     17885       155  POPE      H11S          -45.4318473934      -23.2445656493        7.6494513058  MEMB      155             0.0000000000
     17886       155  POPE      C212          -44.9437482591      -25.0333168239        6.6401891929  MEMB      155             0.0000000000
     17887       155  POPE      H12R          -45.7386624423      -25.5891473921        7.1819311579  MEMB      155             0.0000000000
     17888       155  POPE      H12S          -44.1426284913      -25.8020490804        6.6004488558  MEMB      155             0.0000000000
     17889       155  POPE      C213          -45.2859275943      -24.7530179633        5.1174245595  MEMB      155             0.0000000000
     17890       155  POPE      H13R          -44.3169623180      -24.6066604010        4.5939678489  MEMB      155             0.0000000000
     17891       155  POPE      H13S          -45.9740936555      -23.8813033138        5.0880684925  MEMB      155             0.0000000000
     17892       155  POPE      C214          -46.0403180103      -25.9140965956        4.3875231159  MEMB      155             0.0000000000
     17893       155  POPE      H14R          -45.4396878038      -26.8487273877        4.3929726317  MEMB      155             0.0000000000
     17894       155  POPE      H14S          -46.1488217161      -25.6407339091        3.3161590616  MEMB      155             0.0000000000
     17895       155  POPE      C215          -47.4729089794      -26.1895630188        4.9889777221  MEMB      155             0.0000000000
     17896       155  POPE      H15R          -47.3788180910      -26.3222973032        6.0879997174  MEMB      155             0.0000000000
     17897       155  POPE      H15S          -47.8975562877      -27.0926589273        4.5007016082  MEMB      155             0.0000000000
     17898       155  POPE      C216          -48.5505555427      -25.1001489242        4.6678242887  MEMB      155             0.0000000000
     17899       155  POPE      H16R          -48.0937342881      -24.1022860137        4.8407547973  MEMB      155             0.0000000000
     17900       155  POPE      H16S          -49.4601785513      -25.2587580833        5.2856833629  MEMB      155             0.0000000000
     17901       155  POPE      C217          -48.9880986695      -25.1074665381        3.1388584882  MEMB      155             0.0000000000
     17902       155  POPE      H17R          -48.0724241518      -25.0580696077        2.5116250519  MEMB      155             0.0000000000
     17903       155  POPE      H17S          -49.6201231986      -24.1938343652        3.1269456970  MEMB      155             0.0000000000
     17904       155  POPE      C218          -49.8473519760      -26.2645002662        2.6812491826  MEMB      155             0.0000000000
     17905       155  POPE      H18R          -50.1141789840      -26.0738348573        1.6197538342  MEMB      155             0.0000000000
     17906       155  POPE      H18S          -50.7305535307      -26.4601135363        3.3262390713  MEMB      155             0.0000000000
     17907       155  POPE      H18T          -49.1990360357      -27.1666595956        2.6704405238  MEMB      155             0.0000000000
     17908       155  POPE      C33           -49.6922061602      -26.3787660119       12.3075246315  MEMB      155             0.0000000000
     17909       155  POPE      H3X           -50.1998459800      -27.3619550551       12.4073379364  MEMB      155             0.0000000000
     17910       155  POPE      H3Y           -48.6107392056      -26.5564900404       12.1254140157  MEMB      155             0.0000000000
     17911       155  POPE      C34           -50.2526650097      -25.6521454722       11.1006436088  MEMB      155             0.0000000000
     17912       155  POPE      H4X           -49.7121375749      -24.6860794612       11.1948138989  MEMB      155             0.0000000000
     17913       155  POPE      H4Y           -51.3341389805      -25.6323026530       11.3542992308  MEMB      155             0.0000000000
     17914       155  POPE      C35           -49.9867572383      -26.2793771241        9.6989747141  MEMB      155             0.0000000000
     17915       155  POPE      H5X           -50.3330080317      -27.3211883012        9.5285005659  MEMB      155             0.0000000000
     17916       155  POPE      H5Y           -48.8765527129      -26.2743321889        9.6572433648  MEMB      155             0.0000000000
     17917       155  POPE      C36           -50.3028469708      -25.5666224002        8.3919878604  MEMB      155             0.0000000000
     17918       155  POPE      H6X           -51.3859774858      -25.6590593100        8.1626311649  MEMB      155             0.0000000000
     17919       155  POPE      H6Y           -49.8770101496      -26.0581730437        7.4912317273  MEMB      155             0.0000000000
     17920       155  POPE      C37           -50.1075934345      -24.0242388512        8.3215837577  MEMB      155             0.0000000000
     17921       155  POPE      H7X           -50.5521980619      -23.4668192572        9.1735999092  MEMB      155             0.0000000000
     17922       155  POPE      H7Y           -50.6199164588      -23.7433559118        7.3766233200  MEMB      155             0.0000000000
     17923       155  POPE      C38           -48.6082499441      -23.6424284744        8.2987021949  MEMB      155             0.0000000000
     17924       155  POPE      H8X           -47.9538709628      -24.1300659308        7.5448329788  MEMB      155             0.0000000000
     17925       155  POPE      H8Y           -48.1239173651      -23.8290810850        9.2809966305  MEMB      155             0.0000000000
     17926       155  POPE      C39           -48.4329476774      -22.1172139576        8.0090236166  MEMB      155             0.0000000000
     17927       155  POPE      H9X           -47.3417314890      -21.9200598313        8.0775710719  MEMB      155             0.0000000000
     17928       155  POPE      H9Y           -48.8718498207      -21.6289596972        8.9052901650  MEMB      155             0.0000000000
     17929       155  POPE      C310          -49.0509839385      -21.6102952495        6.7483795009  MEMB      155             0.0000000000
     17930       155  POPE      H10X          -50.1454774845      -21.7855847336        6.8237358072  MEMB      155             0.0000000000
     17931       155  POPE      H10Y          -48.7699203351      -22.2060995410        5.8537615194  MEMB      155             0.0000000000
     17932       155  POPE      C311          -48.6577559883      -20.1532275019        6.4408902855  MEMB      155             0.0000000000
     17933       155  POPE      H11X          -48.7227414063      -19.4518060163        7.3000208700  MEMB      155             0.0000000000
     17934       155  POPE      H11Y          -49.3784190233      -19.7030116556        5.7251591224  MEMB      155             0.0000000000
     17935       155  POPE      C312          -47.2675094875      -19.9182976439        5.7509175393  MEMB      155             0.0000000000
     17936       155  POPE      H12X          -46.5873908825      -19.8588738159        6.6274035840  MEMB      155             0.0000000000
     17937       155  POPE      H12Y          -47.2992902999      -18.8660689758        5.3957743439  MEMB      155             0.0000000000
     17938       155  POPE      C313          -46.7351139665      -20.9108360799        4.7917154644  MEMB      155             0.0000000000
     17939       155  POPE      H13X          -47.5461630861      -21.1823340376        4.0826254800  MEMB      155             0.0000000000
     17940       155  POPE      H13Y          -46.6411433275      -21.8220708789        5.4203181086  MEMB      155             0.0000000000
     17941       155  POPE      C314          -45.4054955379      -20.5837820210        4.1734191711  MEMB      155             0.0000000000
     17942       155  POPE      H14X          -44.8936534228      -21.4939758496        3.7940961293  MEMB      155             0.0000000000
     17943       155  POPE      H14Y          -44.7010183892      -20.3934110361        5.0111490805  MEMB      155             0.0000000000
     17944       155  POPE      C315          -45.3344262730      -19.3707124172        3.1978285429  MEMB      155             0.0000000000
     17945       155  POPE      H15X          -44.4179949305      -19.5637908186        2.6001706646  MEMB      155             0.0000000000
     17946       155  POPE      H15Y          -45.1210527411      -18.4233214523        3.7374976687  MEMB      155             0.0000000000
     17947       155  POPE      C316          -46.4381831996      -19.1607457871        2.2260068483  MEMB      155             0.0000000000
     17948       155  POPE      H16X          -46.5238100409      -19.9253913963        1.4245657173  MEMB      155             0.0000000000
     17949       155  POPE      H16Y          -46.4189101949      -18.2836877254        1.5443036908  MEMB      155             0.0000000000
     17950       155  POPE      H16Z          -47.4294626136      -19.1917098500        2.7267340097  MEMB      155             0.0000000000
     17951       156  POPE      N              42.8863285004      -18.7773924103       21.2016924928  MEMB      156             0.0000000000
     17952       156  POPE      HN1            42.0260439032      -18.6831191037       20.6249576741  MEMB      156             0.0000000000
     17953       156  POPE      HN2            42.6113112369      -19.0522891146       22.1662634889  MEMB      156             0.0000000000
     17954       156  POPE      HN3            43.3903491531      -17.8682169959       21.1706576379  MEMB      156             0.0000000000
     17955       156  POPE      C12            43.6634488032      -19.8923726879       20.6945606398  MEMB      156             0.0000000000
     17956       156  POPE      H12A           44.3921288919      -20.0855603283       21.5106641602  MEMB      156             0.0000000000
     17957       156  POPE      H12B           44.2421617002      -19.5781004296       19.7997727884  MEMB      156             0.0000000000
     17958       156  POPE      C11            42.7577648877      -21.1305156292       20.3728459283  MEMB      156             0.0000000000
     17959       156  POPE      H11A           42.4359137361      -21.3312806386       21.4170805846  MEMB      156             0.0000000000
     17960       156  POPE      H11B           43.2797126120      -22.0247914712       19.9701517865  MEMB      156             0.0000000000
     17961       156  POPE      P              41.9035332993      -20.5964217453       17.8816045559  MEMB      156             0.0000000000
     17962       156  POPE      O13            40.8166624231      -21.1220701234       17.0454323680  MEMB      156             0.0000000000
     17963       156  POPE      O14            43.2160872394      -21.1898339000       17.5951787006  MEMB      156             0.0000000000
     17964       156  POPE      O11            41.9694786250      -19.0600346437       17.7121065655  MEMB      156             0.0000000000
     17965       156  POPE      O12            41.6424026195      -20.8040276566       19.4965787650  MEMB      156             0.0000000000
     17966       156  POPE      C1             40.9156788039      -18.1366202963       17.9996277137  MEMB      156             0.0000000000
     17967       156  POPE      HA             40.9058688831      -17.8401615359       19.0702989686  MEMB      156             0.0000000000
     17968       156  POPE      HB             39.9170652496      -18.6026862375       17.8586505194  MEMB      156             0.0000000000
     17969       156  POPE      C2             40.9836306293      -16.8453602365       17.2208255238  MEMB      156             0.0000000000
     17970       156  POPE      HS             40.0589153600      -16.2542361295       17.3934386076  MEMB      156             0.0000000000
     17971       156  POPE      O21            41.2254523589      -17.1580353991       15.8377014658  MEMB      156             0.0000000000
     17972       156  POPE      C21            40.0873673213      -17.2858992474       15.1015983798  MEMB      156             0.0000000000
     17973       156  POPE      O22            38.9438375283      -17.2667598427       15.5454502917  MEMB      156             0.0000000000
     17974       156  POPE      C22            40.5080956153      -17.4425818245       13.6540644772  MEMB      156             0.0000000000
     17975       156  POPE      H2R            41.4947315564      -17.0093879659       13.3834844375  MEMB      156             0.0000000000
     17976       156  POPE      H2S            39.8220938157      -16.8076810034       13.0535453902  MEMB      156             0.0000000000
     17977       156  POPE      C3             42.1949642501      -16.0367154291       17.8355479069  MEMB      156             0.0000000000
     17978       156  POPE      HX             41.8361979059      -15.8255948827       18.8656138162  MEMB      156             0.0000000000
     17979       156  POPE      HY             42.2675349366      -15.0904832102       17.2578809717  MEMB      156             0.0000000000
     17980       156  POPE      O31            43.3845330444      -16.8105961873       17.8627559301  MEMB      156             0.0000000000
     17981       156  POPE      C31            44.0748898479      -16.8680718162       16.6950543976  MEMB      156             0.0000000000
     17982       156  POPE      O32            43.8971423036      -16.1927707841       15.6918961171  MEMB      156             0.0000000000
     17983       156  POPE      C32            45.2588060188      -17.8098642008       16.8938632982  MEMB      156             0.0000000000
     17984       156  POPE      H2X            45.1340777343      -18.5444300165       17.7179853766  MEMB      156             0.0000000000
     17985       156  POPE      H2Y            46.1572135465      -17.1763485589       17.0546197700  MEMB      156             0.0000000000
     17986       156  POPE      C23            40.4271800789      -18.8983122069       13.2449795933  MEMB      156             0.0000000000
     17987       156  POPE      H3R            40.3872552379      -19.0318060922       12.1427518612  MEMB      156             0.0000000000
     17988       156  POPE      H3S            39.5247534430      -19.3948887318       13.6613435298  MEMB      156             0.0000000000
     17989       156  POPE      C24            41.4932093355      -19.6840671840       13.8625438938  MEMB      156             0.0000000000
     17990       156  POPE      H4R            41.4469169996      -19.5075210885       14.9584494876  MEMB      156             0.0000000000
     17991       156  POPE      H4S            42.4975825725      -19.4969084111       13.4260494426  MEMB      156             0.0000000000
     17992       156  POPE      C25            41.3922842086      -21.1987923903       13.5569090959  MEMB      156             0.0000000000
     17993       156  POPE      H5R            40.6091721533      -21.7421077398       14.1277547642  MEMB      156             0.0000000000
     17994       156  POPE      H5S            42.3418711184      -21.6973392667       13.8468344682  MEMB      156             0.0000000000
     17995       156  POPE      C26            41.1586852964      -21.6191399096       12.0499537925  MEMB      156             0.0000000000
     17996       156  POPE      H6R            42.0361036184      -21.1929551112       11.5181415372  MEMB      156             0.0000000000
     17997       156  POPE      H6S            40.2043743184      -21.1830648431       11.6846454375  MEMB      156             0.0000000000
     17998       156  POPE      C27            41.2723606553      -23.1367785553       11.9489545414  MEMB      156             0.0000000000
     17999       156  POPE      H7R            40.4856911400      -23.4708513884       12.6587909648  MEMB      156             0.0000000000
     18000       156  POPE      H7S            42.1854466477      -23.6271665319       12.3490975469  MEMB      156             0.0000000000
     18001       156  POPE      C28            40.8509536996      -23.6597175987       10.5957864753  MEMB      156             0.0000000000
     18002       156  POPE      H8R            39.9614487110      -23.0724623094       10.2823644821  MEMB      156             0.0000000000
     18003       156  POPE      H8S            40.4924380095      -24.6952205953       10.7788744135  MEMB      156             0.0000000000
     18004       156  POPE      C29            41.9111284435      -23.7300807691        9.4965290095  MEMB      156             0.0000000000
     18005       156  POPE      H91            42.6193609884      -24.5676126265        9.5798793579  MEMB      156             0.0000000000
     18006       156  POPE      C210           42.0506058314      -22.8471460108        8.4738995925  MEMB      156             0.0000000000
     18007       156  POPE      H101           42.8135556730      -22.8203570527        7.6819467106  MEMB      156             0.0000000000
     18008       156  POPE      C211           41.1546502839      -21.6522609524        8.2812469782  MEMB      156             0.0000000000
     18009       156  POPE      H11R           41.7081365746      -20.7102942527        8.0795715338  MEMB      156             0.0000000000
     18010       156  POPE      H11S           40.5563484421      -21.4742064876        9.2002965519  MEMB      156             0.0000000000
     18011       156  POPE      C212           40.2749834648      -21.9103410687        6.9994275454  MEMB      156             0.0000000000
     18012       156  POPE      H12R           39.5676848312      -21.0696321031        6.8343271598  MEMB      156             0.0000000000
     18013       156  POPE      H12S           39.6962503586      -22.8216408879        7.2619570129  MEMB      156             0.0000000000
     18014       156  POPE      C213           41.0393930880      -22.3882783771        5.6849281609  MEMB      156             0.0000000000
     18015       156  POPE      H13R           41.4617047477      -23.4141943525        5.7438391425  MEMB      156             0.0000000000
     18016       156  POPE      H13S           41.8833383766      -21.6838539722        5.5241055061  MEMB      156             0.0000000000
     18017       156  POPE      C214           40.1627924376      -22.3939190573        4.5404974418  MEMB      156             0.0000000000
     18018       156  POPE      H14R           39.7371814188      -21.3737515496        4.4289859523  MEMB      156             0.0000000000
     18019       156  POPE      H14S           39.2318007627      -22.9991988364        4.5753081676  MEMB      156             0.0000000000
     18020       156  POPE      C215           40.9068166694      -22.7738592254        3.1912121107  MEMB      156             0.0000000000
     18021       156  POPE      H15R           41.0297705825      -23.8737565085        3.2883158436  MEMB      156             0.0000000000
     18022       156  POPE      H15S           41.8719363778      -22.2322804595        3.0934496072  MEMB      156             0.0000000000
     18023       156  POPE      C216           40.1851392897      -22.3546535001        1.8975942510  MEMB      156             0.0000000000
     18024       156  POPE      H16R           39.1962390857      -21.9155506760        2.1497586707  MEMB      156             0.0000000000
     18025       156  POPE      H16S           40.0280901655      -23.2871955904        1.3144812590  MEMB      156             0.0000000000
     18026       156  POPE      C217           40.9256941493      -21.2053592482        1.0720337958  MEMB      156             0.0000000000
     18027       156  POPE      H17R           41.3182364820      -20.4962605283        1.8319088648  MEMB      156             0.0000000000
     18028       156  POPE      H17S           40.1410220932      -20.7055933589        0.4647078743  MEMB      156             0.0000000000
     18029       156  POPE      C218           42.0631190403      -21.6785701930        0.1862608792  MEMB      156             0.0000000000
     18030       156  POPE      H18R           43.0021512961      -21.9117634047        0.7323008553  MEMB      156             0.0000000000
     18031       156  POPE      H18S           42.2779104328      -20.8879045251       -0.5640943859  MEMB      156             0.0000000000
     18032       156  POPE      H18T           41.7069008985      -22.5957359868       -0.3297201773  MEMB      156             0.0000000000
     18033       156  POPE      C33            45.4989430565      -18.5722825233       15.5039906847  MEMB      156             0.0000000000
     18034       156  POPE      H3X            45.7805427178      -17.9064546562       14.6603700709  MEMB      156             0.0000000000
     18035       156  POPE      H3Y            44.5334000205      -19.0816514198       15.2976145348  MEMB      156             0.0000000000
     18036       156  POPE      C34            46.7001084767      -19.4487331414       15.6459956983  MEMB      156             0.0000000000
     18037       156  POPE      H4X            46.4929320460      -20.2007920078       16.4370750063  MEMB      156             0.0000000000
     18038       156  POPE      H4Y            47.5030829385      -18.7372513799       15.9346944733  MEMB      156             0.0000000000
     18039       156  POPE      C35            46.9869583510      -20.2303025254       14.3448501169  MEMB      156             0.0000000000
     18040       156  POPE      H5X            47.9252001747      -20.7945152733       14.5337607846  MEMB      156             0.0000000000
     18041       156  POPE      H5Y            47.1489323876      -19.4650542293       13.5558755459  MEMB      156             0.0000000000
     18042       156  POPE      C36            45.8834663357      -21.3382553289       14.0712218656  MEMB      156             0.0000000000
     18043       156  POPE      H6X            44.8937825858      -21.0487547946       14.4847880562  MEMB      156             0.0000000000
     18044       156  POPE      H6Y            45.9960827505      -22.2291848032       14.7253502155  MEMB      156             0.0000000000
     18045       156  POPE      C37            45.7359056825      -21.7014863203       12.6497573810  MEMB      156             0.0000000000
     18046       156  POPE      H7X            44.8967865006      -22.4296269658       12.6464133145  MEMB      156             0.0000000000
     18047       156  POPE      H7Y            46.6741650186      -22.1771840743       12.2924035746  MEMB      156             0.0000000000
     18048       156  POPE      C38            45.5313232375      -20.4393671154       11.7569379473  MEMB      156             0.0000000000
     18049       156  POPE      H8X            46.5087383659      -19.9170931264       11.6781316238  MEMB      156             0.0000000000
     18050       156  POPE      H8Y            44.8725823332      -19.6451762450       12.1688147943  MEMB      156             0.0000000000
     18051       156  POPE      C39            44.9226576674      -20.8581199893       10.3974836009  MEMB      156             0.0000000000
     18052       156  POPE      H9X            43.8376889967      -21.0508742174       10.5389378365  MEMB      156             0.0000000000
     18053       156  POPE      H9Y            45.3738583380      -21.8183705541       10.0678502953  MEMB      156             0.0000000000
     18054       156  POPE      C310           44.9975721461      -19.7525212348        9.3314922755  MEMB      156             0.0000000000
     18055       156  POPE      H10X           46.0043299896      -19.3038852331        9.1919018590  MEMB      156             0.0000000000
     18056       156  POPE      H10Y           44.3592052275      -18.9523260520        9.7633441656  MEMB      156             0.0000000000
     18057       156  POPE      C311           44.7142145567      -20.1939246563        7.9057363576  MEMB      156             0.0000000000
     18058       156  POPE      H11X           43.8266922543      -20.8484784626        8.0405883559  MEMB      156             0.0000000000
     18059       156  POPE      H11Y           45.6072031329      -20.6949832189        7.4746537081  MEMB      156             0.0000000000
     18060       156  POPE      C312           44.3061594960      -18.9885060676        7.0733503394  MEMB      156             0.0000000000
     18061       156  POPE      H12X           45.0499009110      -18.1794927490        7.2366515363  MEMB      156             0.0000000000
     18062       156  POPE      H12Y           43.3505164059      -18.6581507162        7.5337111971  MEMB      156             0.0000000000
     18063       156  POPE      C313           44.1874585808      -19.1076081026        5.5493619652  MEMB      156             0.0000000000
     18064       156  POPE      H13X           43.9432249427      -18.0426437915        5.3480598535  MEMB      156             0.0000000000
     18065       156  POPE      H13Y           43.3789680014      -19.8145228311        5.2648701945  MEMB      156             0.0000000000
     18066       156  POPE      C314           45.4360722490      -19.4359947819        4.7786981538  MEMB      156             0.0000000000
     18067       156  POPE      H14X           45.8719451405      -20.3861679063        5.1548725816  MEMB      156             0.0000000000
     18068       156  POPE      H14Y           46.1568606353      -18.6076651456        4.9479766098  MEMB      156             0.0000000000
     18069       156  POPE      C315           45.2601495080      -19.5442042411        3.3222795837  MEMB      156             0.0000000000
     18070       156  POPE      H15X           44.5973967318      -20.3791670365        3.0093629237  MEMB      156             0.0000000000
     18071       156  POPE      H15Y           46.1424872401      -19.9735998983        2.8012987077  MEMB      156             0.0000000000
     18072       156  POPE      C316           44.8186594035      -18.3335292785        2.5610390300  MEMB      156             0.0000000000
     18073       156  POPE      H16X           43.7790115110      -18.0693774976        2.8503100054  MEMB      156             0.0000000000
     18074       156  POPE      H16Y           44.8523161717      -18.4662831557        1.4585135492  MEMB      156             0.0000000000
     18075       156  POPE      H16Z           45.4263943999      -17.4043078083        2.6001124282  MEMB      156             0.0000000000
     18076       157  POPC      N             -32.9517915247      -43.8727523803       20.4617419697  MEMB      157             0.0000000000
     18077       157  POPC      C12           -33.1380730786      -43.4178871152       18.9413253847  MEMB      157             0.0000000000
     18078       157  POPC      H12A          -33.2918348964      -42.3489036819       18.9469678550  MEMB      157             0.0000000000
     18079       157  POPC      H12B          -34.0023107038      -43.8898087873       18.4977226957  MEMB      157             0.0000000000
     18080       157  POPC      C13           -31.6406202837      -43.3447452136       21.0263827232  MEMB      157             0.0000000000
     18081       157  POPC      H13A          -30.8910528984      -43.7203770582       20.3456115656  MEMB      157             0.0000000000
     18082       157  POPC      H13B          -31.6870807921      -42.2657512535       21.0227318545  MEMB      157             0.0000000000
     18083       157  POPC      H13C          -31.5171851348      -43.8066303011       21.9947968731  MEMB      157             0.0000000000
     18084       157  POPC      C14           -34.1033981883      -43.3086326949       21.2565320789  MEMB      157             0.0000000000
     18085       157  POPC      H14A          -34.1741705264      -43.6982726430       22.2613065490  MEMB      157             0.0000000000
     18086       157  POPC      H14B          -34.0676882133      -42.2300791039       21.2135528051  MEMB      157             0.0000000000
     18087       157  POPC      H14C          -34.9665614203      -43.6786610271       20.7232137910  MEMB      157             0.0000000000
     18088       157  POPC      C15           -32.9745997923      -45.3772787192       20.5180291187  MEMB      157             0.0000000000
     18089       157  POPC      H15A          -33.7579582943      -45.7511362243       19.8753940164  MEMB      157             0.0000000000
     18090       157  POPC      H15B          -33.1078522046      -45.6789498488       21.5464445101  MEMB      157             0.0000000000
     18091       157  POPC      H15C          -32.0215270964      -45.6499902091       20.0894489693  MEMB      157             0.0000000000
     18092       157  POPC      C11           -32.0073157903      -43.6874297788       17.9525991005  MEMB      157             0.0000000000
     18093       157  POPC      H11A          -32.3919206616      -43.5305873892       16.9221619944  MEMB      157             0.0000000000
     18094       157  POPC      H11B          -31.6965401100      -44.7509601164       18.0341018654  MEMB      157             0.0000000000
     18095       157  POPC      P             -29.4124202896      -43.0269300621       17.7479451035  MEMB      157             0.0000000000
     18096       157  POPC      O13           -29.2850160404      -44.1122223895       16.7497816809  MEMB      157             0.0000000000
     18097       157  POPC      O14           -28.5578842957      -43.0688884063       18.9499820095  MEMB      157             0.0000000000
     18098       157  POPC      O12           -30.9277342476      -42.8337169778       18.3129035588  MEMB      157             0.0000000000
     18099       157  POPC      O11           -29.2677340204      -41.6131059553       17.0827772755  MEMB      157             0.0000000000
     18100       157  POPC      C1            -29.4108510922      -40.4457082333       17.8706087833  MEMB      157             0.0000000000
     18101       157  POPC      HA            -28.4335307833      -40.2205145446       18.3485772356  MEMB      157             0.0000000000
     18102       157  POPC      HB            -30.1446762971      -40.5801370370       18.6938648469  MEMB      157             0.0000000000
     18103       157  POPC      C2            -29.8696064588      -39.2116901287       16.9975722295  MEMB      157             0.0000000000
     18104       157  POPC      HS            -30.0267852019      -38.2359831812       17.5051269529  MEMB      157             0.0000000000
     18105       157  POPC      O21           -31.0884447769      -39.6200910630       16.3016383160  MEMB      157             0.0000000000
     18106       157  POPC      C21           -32.1918936724      -39.7485146917       17.0048020471  MEMB      157             0.0000000000
     18107       157  POPC      O22           -32.3182721961      -39.5643237013       18.1771096076  MEMB      157             0.0000000000
     18108       157  POPC      C22           -33.3151984490      -40.2486781030       15.9454043856  MEMB      157             0.0000000000
     18109       157  POPC      H2R           -34.2678253940      -39.7786786308       16.2708624683  MEMB      157             0.0000000000
     18110       157  POPC      H2S           -33.5274826546      -41.3214319130       16.1415058176  MEMB      157             0.0000000000
     18111       157  POPC      C3            -28.7837610392      -38.7514370666       16.0329394945  MEMB      157             0.0000000000
     18112       157  POPC      HX            -27.9115959650      -38.4575436220       16.6552544207  MEMB      157             0.0000000000
     18113       157  POPC      HY            -29.0901862825      -37.8925843600       15.3982769722  MEMB      157             0.0000000000
     18114       157  POPC      O31           -28.1817845618      -39.7468785127       15.2206031914  MEMB      157             0.0000000000
     18115       157  POPC      C31           -28.6707342928      -39.8973976540       14.0075826574  MEMB      157             0.0000000000
     18116       157  POPC      O32           -29.6015380634      -39.2687522025       13.5563503355  MEMB      157             0.0000000000
     18117       157  POPC      C32           -27.9874854124      -41.0183235149       13.1609237285  MEMB      157             0.0000000000
     18118       157  POPC      H2X           -28.0231087435      -41.9450956084       13.7725982794  MEMB      157             0.0000000000
     18119       157  POPC      H2Y           -26.9416201318      -40.7316366464       12.9194750700  MEMB      157             0.0000000000
     18120       157  POPC      C23           -33.0358220555      -39.9065837912       14.4214464690  MEMB      157             0.0000000000
     18121       157  POPC      H3R           -32.3961201643      -40.6459813151       13.8938160504  MEMB      157             0.0000000000
     18122       157  POPC      H3S           -32.4618193213      -38.9576705629       14.4878218381  MEMB      157             0.0000000000
     18123       157  POPC      C24           -34.3753754358      -39.6294465723       13.7565173578  MEMB      157             0.0000000000
     18124       157  POPC      H4R           -35.0111728711      -38.8495872525       14.2275824670  MEMB      157             0.0000000000
     18125       157  POPC      H4S           -35.0768753460      -40.4897881761       13.8015868454  MEMB      157             0.0000000000
     18126       157  POPC      C25           -34.2106875799      -39.1079219575       12.3638680733  MEMB      157             0.0000000000
     18127       157  POPC      H5R           -33.1664391544      -38.7481933163       12.2436107577  MEMB      157             0.0000000000
     18128       157  POPC      H5S           -34.8382276801      -38.1988400804       12.2451882712  MEMB      157             0.0000000000
     18129       157  POPC      C26           -34.4591836956      -40.2200791923       11.3310603891  MEMB      157             0.0000000000
     18130       157  POPC      H6R           -35.4391253305      -40.7388891650       11.4008583699  MEMB      157             0.0000000000
     18131       157  POPC      H6S           -33.6389687774      -40.9689837929       11.3044179759  MEMB      157             0.0000000000
     18132       157  POPC      C27           -34.4418717215      -39.6784390966        9.9313129258  MEMB      157             0.0000000000
     18133       157  POPC      H7R           -34.9943967880      -38.7169901032        9.8631008151  MEMB      157             0.0000000000
     18134       157  POPC      H7S           -34.9137822865      -40.4134049224        9.2446927383  MEMB      157             0.0000000000
     18135       157  POPC      C28           -32.9850668512      -39.4929777835        9.3360270741  MEMB      157             0.0000000000
     18136       157  POPC      H8R           -32.3817543779      -40.2511813424        9.8795909776  MEMB      157             0.0000000000
     18137       157  POPC      H8S           -32.5050268378      -38.5392886636        9.6432074106  MEMB      157             0.0000000000
     18138       157  POPC      C29           -32.9484443450      -39.7023052081        7.8557042610  MEMB      157             0.0000000000
     18139       157  POPC      H91           -33.1084262211      -38.7588940315        7.3131360445  MEMB      157             0.0000000000
     18140       157  POPC      C210          -32.6478539833      -40.8019533765        7.1994451879  MEMB      157             0.0000000000
     18141       157  POPC      H101          -32.5573847624      -40.7643065544        6.1038183143  MEMB      157             0.0000000000
     18142       157  POPC      C211          -32.2646100741      -42.1640769327        7.7359376788  MEMB      157             0.0000000000
     18143       157  POPC      H11R          -32.5831966829      -42.2767372149        8.7942998573  MEMB      157             0.0000000000
     18144       157  POPC      H11S          -31.1724293495      -42.3296600121        7.6174285830  MEMB      157             0.0000000000
     18145       157  POPC      C212          -33.0362462048      -43.1558562326        6.9633588293  MEMB      157             0.0000000000
     18146       157  POPC      H12R          -34.0718737865      -42.8151329363        6.7495728147  MEMB      157             0.0000000000
     18147       157  POPC      H12S          -33.1470788329      -44.1163284243        7.5106523426  MEMB      157             0.0000000000
     18148       157  POPC      C213          -32.3660728832      -43.6294025015        5.6676339155  MEMB      157             0.0000000000
     18149       157  POPC      H13R          -31.4005763551      -44.1093974562        5.9354819589  MEMB      157             0.0000000000
     18150       157  POPC      H13S          -32.1899479068      -42.8623227440        4.8834852734  MEMB      157             0.0000000000
     18151       157  POPC      C214          -33.2003529432      -44.7403574680        5.0087534668  MEMB      157             0.0000000000
     18152       157  POPC      H14R          -34.2350411336      -44.3382092158        5.0536779700  MEMB      157             0.0000000000
     18153       157  POPC      H14S          -33.2364563592      -45.6088165122        5.7007045992  MEMB      157             0.0000000000
     18154       157  POPC      C215          -32.6861884388      -45.1031602205        3.6002367771  MEMB      157             0.0000000000
     18155       157  POPC      H15R          -32.3668358716      -44.1528052397        3.1215304883  MEMB      157             0.0000000000
     18156       157  POPC      H15S          -33.5820485593      -45.5177943032        3.0904976239  MEMB      157             0.0000000000
     18157       157  POPC      C216          -31.4728166404      -46.0133952202        3.5338615629  MEMB      157             0.0000000000
     18158       157  POPC      H16R          -31.8608920227      -47.0222352960        3.7906886185  MEMB      157             0.0000000000
     18159       157  POPC      H16S          -30.6450050751      -45.6650444391        4.1878494218  MEMB      157             0.0000000000
     18160       157  POPC      C217          -30.9158260961      -46.1004672254        2.0975405836  MEMB      157             0.0000000000
     18161       157  POPC      H17R          -31.7618968641      -46.3061922983        1.4074936970  MEMB      157             0.0000000000
     18162       157  POPC      H17S          -30.2418835263      -46.9712974177        1.9499687012  MEMB      157             0.0000000000
     18163       157  POPC      C218          -30.1170473227      -44.8785657360        1.5401568865  MEMB      157             0.0000000000
     18164       157  POPC      H18R          -29.4012225650      -44.4270038654        2.2598854089  MEMB      157             0.0000000000
     18165       157  POPC      H18S          -30.8227867019      -44.1142469626        1.1501960970  MEMB      157             0.0000000000
     18166       157  POPC      H18T          -29.5394731510      -45.1835468548        0.6414280128  MEMB      157             0.0000000000
     18167       157  POPC      C33           -28.8441353065      -41.3439292946       11.8930078375  MEMB      157             0.0000000000
     18168       157  POPC      H3X           -28.8867927471      -40.4844395937       11.1903141263  MEMB      157             0.0000000000
     18169       157  POPC      H3Y           -29.9126109017      -41.4703385232       12.1699583077  MEMB      157             0.0000000000
     18170       157  POPC      C34           -28.4499063469      -42.6319051123       11.0904443056  MEMB      157             0.0000000000
     18171       157  POPC      H4X           -28.8391658930      -43.4903418387       11.6785633521  MEMB      157             0.0000000000
     18172       157  POPC      H4Y           -27.3589669125      -42.8402699188       11.1179469016  MEMB      157             0.0000000000
     18173       157  POPC      C35           -28.9129840220      -42.7021081529        9.6119139702  MEMB      157             0.0000000000
     18174       157  POPC      H5X           -29.9367852108      -42.2808295094        9.5187668073  MEMB      157             0.0000000000
     18175       157  POPC      H5Y           -29.0936430917      -43.7861637995        9.4491053846  MEMB      157             0.0000000000
     18176       157  POPC      C36           -27.9624078227      -42.1044360075        8.6464250253  MEMB      157             0.0000000000
     18177       157  POPC      H6X           -27.0739262076      -42.7711382238        8.6671501984  MEMB      157             0.0000000000
     18178       157  POPC      H6Y           -27.6149910210      -41.1178554095        9.0209670684  MEMB      157             0.0000000000
     18179       157  POPC      C37           -28.4085268333      -42.0252619340        7.1693580468  MEMB      157             0.0000000000
     18180       157  POPC      H7X           -29.2872691270      -41.3520258884        7.0750921849  MEMB      157             0.0000000000
     18181       157  POPC      H7Y           -28.7343712461      -43.0104816086        6.7725101306  MEMB      157             0.0000000000
     18182       157  POPC      C38           -27.3994586045      -41.4835487358        6.2032104946  MEMB      157             0.0000000000
     18183       157  POPC      H8X           -26.4976384576      -42.1324124570        6.1990358189  MEMB      157             0.0000000000
     18184       157  POPC      H8Y           -27.0778528470      -40.4704499713        6.5265075374  MEMB      157             0.0000000000
     18185       157  POPC      C39           -27.8533426386      -41.4410569326        4.7189435369  MEMB      157             0.0000000000
     18186       157  POPC      H9X           -27.9987411449      -42.4973348560        4.4067622045  MEMB      157             0.0000000000
     18187       157  POPC      H9Y           -27.1534146152      -40.8630817857        4.0783449020  MEMB      157             0.0000000000
     18188       157  POPC      C310          -29.2052819620      -40.7316814210        4.5869931247  MEMB      157             0.0000000000
     18189       157  POPC      H10X          -29.1282230210      -39.7877659202        5.1678601469  MEMB      157             0.0000000000
     18190       157  POPC      H10Y          -30.1041777907      -41.2352299433        5.0026207169  MEMB      157             0.0000000000
     18191       157  POPC      C311          -29.7110594509      -40.4048653302        3.1746919114  MEMB      157             0.0000000000
     18192       157  POPC      H11X          -29.5670423936      -41.3596197086        2.6251240741  MEMB      157             0.0000000000
     18193       157  POPC      H11Y          -28.9599347282      -39.6899552917        2.7758980907  MEMB      157             0.0000000000
     18194       157  POPC      C312          -31.1587267506      -40.0459866262        2.9814685527  MEMB      157             0.0000000000
     18195       157  POPC      H12X          -31.2718278690      -39.0498558503        3.4602719029  MEMB      157             0.0000000000
     18196       157  POPC      H12Y          -31.8442910445      -40.7406400592        3.5122973329  MEMB      157             0.0000000000
     18197       157  POPC      C313          -31.6209142671      -40.1147515785        1.4767405152  MEMB      157             0.0000000000
     18198       157  POPC      H13X          -30.7674963771      -39.7528236375        0.8643624064  MEMB      157             0.0000000000
     18199       157  POPC      H13Y          -32.4731074040      -39.4190979895        1.3213250369  MEMB      157             0.0000000000
     18200       157  POPC      C314          -32.2408623973      -41.4251987934        1.0907442024  MEMB      157             0.0000000000
     18201       157  POPC      H14X          -32.8707681212      -41.9850218861        1.8147173421  MEMB      157             0.0000000000
     18202       157  POPC      H14Y          -31.3511302963      -42.0849981564        1.0049402274  MEMB      157             0.0000000000
     18203       157  POPC      C315          -32.9802160267      -41.3798123947       -0.2287172408  MEMB      157             0.0000000000
     18204       157  POPC      H15X          -32.4475930405      -40.8016649383       -1.0138151422  MEMB      157             0.0000000000
     18205       157  POPC      H15Y          -33.9155324453      -40.7986097447       -0.0813807024  MEMB      157             0.0000000000
     18206       157  POPC      C316          -33.2528054339      -42.7023920584       -0.8971632355  MEMB      157             0.0000000000
     18207       157  POPC      H16X          -32.7609826445      -43.4486718863       -0.2372419110  MEMB      157             0.0000000000
     18208       157  POPC      H16Y          -32.7797529486      -42.8533000010       -1.8910302802  MEMB      157             0.0000000000
     18209       157  POPC      H16Z          -34.3413036363      -42.9209497047       -0.9386980340  MEMB      157             0.0000000000
     18210       158  POPC      N              21.4311565937       50.3375577413       19.0819647206  MEMB      158             0.0000000000
     18211       158  POPC      C12            20.9837008663       51.1633204741       17.9265359747  MEMB      158             0.0000000000
     18212       158  POPC      H12A           21.0876381683       50.6104342987       17.0046281815  MEMB      158             0.0000000000
     18213       158  POPC      H12B           21.5237934528       52.0910865378       18.0446461215  MEMB      158             0.0000000000
     18214       158  POPC      C13            20.6437498563       48.9521010552       19.1389425469  MEMB      158             0.0000000000
     18215       158  POPC      H13A           21.2189281391       48.3510440668       19.8276372981  MEMB      158             0.0000000000
     18216       158  POPC      H13B           19.6442865367       48.9971900344       19.5456857862  MEMB      158             0.0000000000
     18217       158  POPC      H13C           20.6521368245       48.6089692296       18.1149356628  MEMB      158             0.0000000000
     18218       158  POPC      C14            22.9243080757       50.1076905748       18.8480831808  MEMB      158             0.0000000000
     18219       158  POPC      H14A           23.0915768889       49.7781497286       17.8332807329  MEMB      158             0.0000000000
     18220       158  POPC      H14B           23.4837112443       51.0019817671       19.0798397579  MEMB      158             0.0000000000
     18221       158  POPC      H14C           23.2548958767       49.2597802334       19.4295982352  MEMB      158             0.0000000000
     18222       158  POPC      C15            21.1658503268       50.9660532338       20.3643520568  MEMB      158             0.0000000000
     18223       158  POPC      H15A           21.7332371845       51.8826388715       20.4302532289  MEMB      158             0.0000000000
     18224       158  POPC      H15B           21.4423467572       50.3604103176       21.2147321625  MEMB      158             0.0000000000
     18225       158  POPC      H15C           20.1289706429       51.2676756830       20.3817963077  MEMB      158             0.0000000000
     18226       158  POPC      C11            19.4950863451       51.5457510060       17.8583388347  MEMB      158             0.0000000000
     18227       158  POPC      H11A           18.9934957349       50.5595854065       17.7573182018  MEMB      158             0.0000000000
     18228       158  POPC      H11B           19.3743379595       52.1027178336       16.9046465527  MEMB      158             0.0000000000
     18229       158  POPC      P              19.0513881841       53.7380350323       19.1843230798  MEMB      158             0.0000000000
     18230       158  POPC      O13            19.1977328984       54.0425587657       20.6581605034  MEMB      158             0.0000000000
     18231       158  POPC      O14            17.8452466639       54.1670074570       18.4474723955  MEMB      158             0.0000000000
     18232       158  POPC      O12            18.8619144024       52.1650239203       19.0095474493  MEMB      158             0.0000000000
     18233       158  POPC      O11            20.3993258909       54.1540680381       18.4822792612  MEMB      158             0.0000000000
     18234       158  POPC      C1             20.5875476825       55.3352489859       17.6967305461  MEMB      158             0.0000000000
     18235       158  POPC      HA             21.3046235320       55.9219849011       18.3098080080  MEMB      158             0.0000000000
     18236       158  POPC      HB             19.6229208818       55.8773909176       17.5972404746  MEMB      158             0.0000000000
     18237       158  POPC      C2             21.1066434602       54.9846046262       16.2727999286  MEMB      158             0.0000000000
     18238       158  POPC      HS             20.2671841435       54.4793279986       15.7490399755  MEMB      158             0.0000000000
     18239       158  POPC      O21            22.2054848071       54.1461597764       16.2990639357  MEMB      158             0.0000000000
     18240       158  POPC      C21            22.3293735808       53.2990141530       15.3202927574  MEMB      158             0.0000000000
     18241       158  POPC      O22            21.5153737472       52.9439186652       14.4967594800  MEMB      158             0.0000000000
     18242       158  POPC      C22            23.7496094993       52.7823963258       15.3676736615  MEMB      158             0.0000000000
     18243       158  POPC      H2R            23.9725467933       52.5530581032       16.4316398150  MEMB      158             0.0000000000
     18244       158  POPC      H2S            24.4810300803       53.5630469783       15.0677914993  MEMB      158             0.0000000000
     18245       158  POPC      C3             21.4857030037       56.2909974415       15.5717591455  MEMB      158             0.0000000000
     18246       158  POPC      HX             22.2014423651       56.8703990795       16.1933150650  MEMB      158             0.0000000000
     18247       158  POPC      HY             20.5277222114       56.8518762996       15.6165772148  MEMB      158             0.0000000000
     18248       158  POPC      O31            22.1631725190       56.0554854602       14.2790365750  MEMB      158             0.0000000000
     18249       158  POPC      C31            21.4603046781       56.2401810143       13.1988871614  MEMB      158             0.0000000000
     18250       158  POPC      O32            20.3284232450       56.6967704567       13.1224542268  MEMB      158             0.0000000000
     18251       158  POPC      C32            22.2953043030       55.8030387193       11.9791522975  MEMB      158             0.0000000000
     18252       158  POPC      H2X            23.1384451952       55.1658530404       12.3218307284  MEMB      158             0.0000000000
     18253       158  POPC      H2Y            22.6840879936       56.6975992109       11.4472405574  MEMB      158             0.0000000000
     18254       158  POPC      C23            23.9969219362       51.3783570535       14.5603181087  MEMB      158             0.0000000000
     18255       158  POPC      H3R            23.0865988566       50.7579487464       14.7042848950  MEMB      158             0.0000000000
     18256       158  POPC      H3S            24.8669770975       50.8092636259       14.9520553274  MEMB      158             0.0000000000
     18257       158  POPC      C24            24.0941458256       51.5904327505       13.0416846679  MEMB      158             0.0000000000
     18258       158  POPC      H4R            25.1437496576       51.7208781068       12.7016299090  MEMB      158             0.0000000000
     18259       158  POPC      H4S            23.6246164563       52.4893009250       12.5879239766  MEMB      158             0.0000000000
     18260       158  POPC      C25            23.5904745643       50.4349610644       12.1989298740  MEMB      158             0.0000000000
     18261       158  POPC      H5R            22.5690515742       50.1985714061       12.5665382949  MEMB      158             0.0000000000
     18262       158  POPC      H5S            24.2373750196       49.5788169927       12.4867804219  MEMB      158             0.0000000000
     18263       158  POPC      C26            23.4872981609       50.4637041921       10.6753524189  MEMB      158             0.0000000000
     18264       158  POPC      H6R            24.5659692024       50.6193565184       10.4595681731  MEMB      158             0.0000000000
     18265       158  POPC      H6S            22.9411839750       51.3202062436       10.2253702589  MEMB      158             0.0000000000
     18266       158  POPC      C27            22.9529846569       49.1479458560       10.0344385613  MEMB      158             0.0000000000
     18267       158  POPC      H7R            23.7107814629       48.3923838204       10.3330875272  MEMB      158             0.0000000000
     18268       158  POPC      H7S            22.9452698096       49.3125086545        8.9357203282  MEMB      158             0.0000000000
     18269       158  POPC      C28            21.5141185020       48.6402112156       10.3275367849  MEMB      158             0.0000000000
     18270       158  POPC      H8R            21.4557441534       48.2444020080       11.3639964650  MEMB      158             0.0000000000
     18271       158  POPC      H8S            21.3383639062       47.7894776441        9.6349448668  MEMB      158             0.0000000000
     18272       158  POPC      C29            20.4618107693       49.7478952459       10.1024412166  MEMB      158             0.0000000000
     18273       158  POPC      H91            20.7514881895       50.6313073265       10.6903781600  MEMB      158             0.0000000000
     18274       158  POPC      C210           19.3500697761       49.7351442910        9.2623031350  MEMB      158             0.0000000000
     18275       158  POPC      H101           18.8299075114       50.7034109545        9.2188239011  MEMB      158             0.0000000000
     18276       158  POPC      C211           18.9452550921       48.5286354416        8.3927923681  MEMB      158             0.0000000000
     18277       158  POPC      H11R           17.8422063772       48.4481027296        8.2873448618  MEMB      158             0.0000000000
     18278       158  POPC      H11S           19.2567207588       47.5916425446        8.9020606105  MEMB      158             0.0000000000
     18279       158  POPC      C212           19.3483017704       48.6779141760        6.9201685633  MEMB      158             0.0000000000
     18280       158  POPC      H12R           18.8597650228       49.4335721238        6.2685284643  MEMB      158             0.0000000000
     18281       158  POPC      H12S           19.3758940385       47.7975276771        6.2430577106  MEMB      158             0.0000000000
     18282       158  POPC      C213           20.8362666934       48.9210562282        6.6787626817  MEMB      158             0.0000000000
     18283       158  POPC      H13R           21.3861706696       48.3122368589        7.4279391944  MEMB      158             0.0000000000
     18284       158  POPC      H13S           21.0363250046       49.9627136434        7.0092892286  MEMB      158             0.0000000000
     18285       158  POPC      C214           21.3690374809       48.8607624453        5.1401872641  MEMB      158             0.0000000000
     18286       158  POPC      H14R           21.0018967207       47.9090359403        4.7000220895  MEMB      158             0.0000000000
     18287       158  POPC      H14S           22.4735897232       48.9357190373        5.0470911882  MEMB      158             0.0000000000
     18288       158  POPC      C215           20.6897631408       49.9965502436        4.2310696781  MEMB      158             0.0000000000
     18289       158  POPC      H15R           21.0774400104       51.0067185835        4.4832350518  MEMB      158             0.0000000000
     18290       158  POPC      H15S           19.6093247032       49.9145548146        4.4765294363  MEMB      158             0.0000000000
     18291       158  POPC      C216           20.7145789465       49.7037121735        2.6888473470  MEMB      158             0.0000000000
     18292       158  POPC      H16R           20.3231580002       48.6859592064        2.4760346100  MEMB      158             0.0000000000
     18293       158  POPC      H16S           21.7338790333       49.6967379767        2.2469200130  MEMB      158             0.0000000000
     18294       158  POPC      C217           19.7823973310       50.6898030450        1.8695667177  MEMB      158             0.0000000000
     18295       158  POPC      H17R           20.2097959272       51.7128762773        1.7990510584  MEMB      158             0.0000000000
     18296       158  POPC      H17S           18.8441972985       50.6901047339        2.4646319701  MEMB      158             0.0000000000
     18297       158  POPC      C218           19.4242673160       50.2598363625        0.4502010175  MEMB      158             0.0000000000
     18298       158  POPC      H18R           18.7906590401       50.9918351612       -0.0948114328  MEMB      158             0.0000000000
     18299       158  POPC      H18S           18.9655539339       49.2558596844        0.3239742112  MEMB      158             0.0000000000
     18300       158  POPC      H18T           20.4004109152       50.1566648078       -0.0702027099  MEMB      158             0.0000000000
     18301       158  POPC      C33            21.5573514491       54.8472143675       11.0374321130  MEMB      158             0.0000000000
     18302       158  POPC      H3X            20.8323313522       55.4218045948       10.4221987591  MEMB      158             0.0000000000
     18303       158  POPC      H3Y            20.8596162962       54.2509052650       11.6634530836  MEMB      158             0.0000000000
     18304       158  POPC      C34            22.4074190049       54.0918639891       10.1526777249  MEMB      158             0.0000000000
     18305       158  POPC      H4X            21.7634810787       53.4166388169        9.5495725196  MEMB      158             0.0000000000
     18306       158  POPC      H4Y            23.0411269082       53.3938230847       10.7404486057  MEMB      158             0.0000000000
     18307       158  POPC      C35            23.2345129294       55.0339243503        9.2824992543  MEMB      158             0.0000000000
     18308       158  POPC      H5X            23.9090856826       55.6761615761        9.8881427420  MEMB      158             0.0000000000
     18309       158  POPC      H5Y            22.6143795147       55.7756132256        8.7350930187  MEMB      158             0.0000000000
     18310       158  POPC      C36            24.0242597901       54.3719032048        8.1313914363  MEMB      158             0.0000000000
     18311       158  POPC      H6X            24.9843316870       54.0605864799        8.5957875331  MEMB      158             0.0000000000
     18312       158  POPC      H6Y            24.3036965119       55.1193342886        7.3583555278  MEMB      158             0.0000000000
     18313       158  POPC      C37            23.3680854364       53.0627097417        7.4674431667  MEMB      158             0.0000000000
     18314       158  POPC      H7X            23.2429280517       52.1483190759        8.0859459842  MEMB      158             0.0000000000
     18315       158  POPC      H7Y            23.9548550429       52.8314979387        6.5528045618  MEMB      158             0.0000000000
     18316       158  POPC      C38            21.9629212423       53.3016207474        7.0122990498  MEMB      158             0.0000000000
     18317       158  POPC      H8X            21.3737256343       53.9445945713        7.7005974926  MEMB      158             0.0000000000
     18318       158  POPC      H8Y            21.3709893104       52.3624655772        6.9684224911  MEMB      158             0.0000000000
     18319       158  POPC      C39            21.9821407009       53.8906090764        5.5661589340  MEMB      158             0.0000000000
     18320       158  POPC      H9X            22.6286454475       53.2918279530        4.8895392810  MEMB      158             0.0000000000
     18321       158  POPC      H9Y            22.4407683041       54.8908140511        5.7196898152  MEMB      158             0.0000000000
     18322       158  POPC      C310           20.5353685332       54.1328481726        5.0453242055  MEMB      158             0.0000000000
     18323       158  POPC      H10X           20.0808739942       54.9158249912        5.6892992977  MEMB      158             0.0000000000
     18324       158  POPC      H10Y           20.0098690854       53.1575546230        5.1288346186  MEMB      158             0.0000000000
     18325       158  POPC      C311           20.4719844528       54.5575585606        3.5957458511  MEMB      158             0.0000000000
     18326       158  POPC      H11X           19.6890586543       54.0913756778        2.9601187932  MEMB      158             0.0000000000
     18327       158  POPC      H11Y           21.4180752717       54.1429027098        3.1867312023  MEMB      158             0.0000000000
     18328       158  POPC      C312           20.5490848978       56.1044254339        3.4324355079  MEMB      158             0.0000000000
     18329       158  POPC      H12X           21.5142013064       56.3483966519        3.9257399856  MEMB      158             0.0000000000
     18330       158  POPC      H12Y           19.6281160108       56.5170610121        3.8970522762  MEMB      158             0.0000000000
     18331       158  POPC      C313           20.6761987237       56.5683820899        2.0123979148  MEMB      158             0.0000000000
     18332       158  POPC      H13X           21.6589369398       56.2015123352        1.6464006665  MEMB      158             0.0000000000
     18333       158  POPC      H13Y           20.6948240238       57.6785905246        2.0499667836  MEMB      158             0.0000000000
     18334       158  POPC      C314           19.5674409432       56.0612998908        1.0280401465  MEMB      158             0.0000000000
     18335       158  POPC      H14X           18.5865106630       56.2952102421        1.4942845836  MEMB      158             0.0000000000
     18336       158  POPC      H14Y           19.6894802551       54.9577103649        0.9890863745  MEMB      158             0.0000000000
     18337       158  POPC      C315           19.6940347681       56.5515300684       -0.4870216557  MEMB      158             0.0000000000
     18338       158  POPC      H15X           20.7798699462       56.3779839683       -0.6456571882  MEMB      158             0.0000000000
     18339       158  POPC      H15Y           19.5822118469       57.6550088199       -0.5514510524  MEMB      158             0.0000000000
     18340       158  POPC      C316           18.8746935386       55.8751259784       -1.5657722549  MEMB      158             0.0000000000
     18341       158  POPC      H16X           19.1128512683       54.7922750655       -1.6367358488  MEMB      158             0.0000000000
     18342       158  POPC      H16Y           19.2212543903       56.3519650020       -2.5074938696  MEMB      158             0.0000000000
     18343       158  POPC      H16Z           17.7698682314       55.9473071130       -1.4737291723  MEMB      158             0.0000000000
     18344       159  POPC      N              33.5899936091      -39.3107651033       18.3938058371  MEMB      159             0.0000000000
     18345       159  POPC      C12            35.0733784177      -39.6784122856       18.3787731479  MEMB      159             0.0000000000
     18346       159  POPC      H12A           35.6288463383      -38.7546984916       18.3108897714  MEMB      159             0.0000000000
     18347       159  POPC      H12B           35.0955387445      -40.2278579212       17.4492472246  MEMB      159             0.0000000000
     18348       159  POPC      C13            33.1384261290      -39.2123717751       19.8410207413  MEMB      159             0.0000000000
     18349       159  POPC      H13A           32.1509166297      -38.7751259301       19.8474306762  MEMB      159             0.0000000000
     18350       159  POPC      H13B           33.2210491553      -40.1577732650       20.3565688034  MEMB      159             0.0000000000
     18351       159  POPC      H13C           33.7867379725      -38.4383903535       20.2244842808  MEMB      159             0.0000000000
     18352       159  POPC      C14            33.5282010028      -37.9638561621       17.6918407079  MEMB      159             0.0000000000
     18353       159  POPC      H14A           32.4985818919      -37.7133244853       17.4832297882  MEMB      159             0.0000000000
     18354       159  POPC      H14B           34.0202162764      -37.2248262043       18.3067844216  MEMB      159             0.0000000000
     18355       159  POPC      H14C           34.0416834580      -38.1679900195       16.7639047327  MEMB      159             0.0000000000
     18356       159  POPC      C15            32.7276924741      -40.3200989517       17.7126879583  MEMB      159             0.0000000000
     18357       159  POPC      H15A           31.7490146641      -39.8791342654       17.5937755772  MEMB      159             0.0000000000
     18358       159  POPC      H15B           32.7404136059      -41.0674590785       18.4922333278  MEMB      159             0.0000000000
     18359       159  POPC      H15C           33.2257173846      -40.5692486363       16.7873255376  MEMB      159             0.0000000000
     18360       159  POPC      C11            35.6310989560      -40.5805829036       19.5558548328  MEMB      159             0.0000000000
     18361       159  POPC      H11A           35.6213564654      -39.9818980566       20.4916979952  MEMB      159             0.0000000000
     18362       159  POPC      H11B           36.6791098542      -40.7504328369       19.2285244891  MEMB      159             0.0000000000
     18363       159  POPC      P              35.5746389787      -43.1723378894       19.5175187628  MEMB      159             0.0000000000
     18364       159  POPC      O13            34.4793010479      -44.1431442352       19.2833479776  MEMB      159             0.0000000000
     18365       159  POPC      O14            36.4859435933      -43.5602822222       20.6069234511  MEMB      159             0.0000000000
     18366       159  POPC      O12            34.8896323932      -41.7460199764       19.8366382480  MEMB      159             0.0000000000
     18367       159  POPC      O11            36.3203740586      -42.9227847614       18.1815883407  MEMB      159             0.0000000000
     18368       159  POPC      C1             35.5526545613      -42.4552109658       17.1301981462  MEMB      159             0.0000000000
     18369       159  POPC      HA             36.2085009877      -41.7574864413       16.5668449505  MEMB      159             0.0000000000
     18370       159  POPC      HB             34.5679695686      -42.0217299454       17.4073455012  MEMB      159             0.0000000000
     18371       159  POPC      C2             35.2945646744      -43.5707794779       16.1305383921  MEMB      159             0.0000000000
     18372       159  POPC      HS             34.8462284758      -44.4345508593       16.6664626861  MEMB      159             0.0000000000
     18373       159  POPC      O21            36.5063680503      -44.0987302696       15.4938620362  MEMB      159             0.0000000000
     18374       159  POPC      C21            36.3135424370      -45.2320249456       14.7439336421  MEMB      159             0.0000000000
     18375       159  POPC      O22            35.3581153873      -45.9761272265       14.6837375844  MEMB      159             0.0000000000
     18376       159  POPC      C22            37.5654034114      -45.5758688432       14.0319116453  MEMB      159             0.0000000000
     18377       159  POPC      H2R            37.5159052551      -46.6384698230       13.7113650625  MEMB      159             0.0000000000
     18378       159  POPC      H2S            38.3923331287      -45.5309945413       14.7725158846  MEMB      159             0.0000000000
     18379       159  POPC      C3             34.2298450403      -43.2073281832       14.9757149557  MEMB      159             0.0000000000
     18380       159  POPC      HX             33.3272042944      -42.7570171930       15.4413120805  MEMB      159             0.0000000000
     18381       159  POPC      HY             33.9918054594      -44.1339521532       14.4108911118  MEMB      159             0.0000000000
     18382       159  POPC      O31            34.9426032636      -42.2752532281       14.1575138532  MEMB      159             0.0000000000
     18383       159  POPC      C31            34.2892197700      -41.3854386739       13.4886120242  MEMB      159             0.0000000000
     18384       159  POPC      O32            33.0648138543      -41.2686083594       13.4407553967  MEMB      159             0.0000000000
     18385       159  POPC      C32            35.1932704627      -40.3194386671       12.8841548758  MEMB      159             0.0000000000
     18386       159  POPC      H2X            35.7146549986      -40.8708125407       12.0726955330  MEMB      159             0.0000000000
     18387       159  POPC      H2Y            36.0243336701      -39.8878222937       13.4819526018  MEMB      159             0.0000000000
     18388       159  POPC      C23            37.8344250129      -44.6891941976       12.8674978329  MEMB      159             0.0000000000
     18389       159  POPC      H3R            38.8401407971      -44.9053724936       12.4478278997  MEMB      159             0.0000000000
     18390       159  POPC      H3S            37.7697893135      -43.6007148677       13.0804673616  MEMB      159             0.0000000000
     18391       159  POPC      C24            36.9110144793      -44.8929880839       11.6461250706  MEMB      159             0.0000000000
     18392       159  POPC      H4R            35.8711303366      -44.6743161683       11.9703845953  MEMB      159             0.0000000000
     18393       159  POPC      H4S            36.9851031810      -45.9195466139       11.2277835816  MEMB      159             0.0000000000
     18394       159  POPC      C25            37.1232687792      -43.8678368635       10.4900586377  MEMB      159             0.0000000000
     18395       159  POPC      H5R            38.1681899127      -43.9850336090       10.1312738166  MEMB      159             0.0000000000
     18396       159  POPC      H5S            36.9479110201      -42.8687751166       10.9433199160  MEMB      159             0.0000000000
     18397       159  POPC      C26            36.2268587706      -44.0168263036        9.2162216292  MEMB      159             0.0000000000
     18398       159  POPC      H6R            35.1741998020      -44.0732710834        9.5669979241  MEMB      159             0.0000000000
     18399       159  POPC      H6S            36.4187156321      -44.9293194828        8.6121774999  MEMB      159             0.0000000000
     18400       159  POPC      C27            36.2046802752      -42.7687536865        8.2131026120  MEMB      159             0.0000000000
     18401       159  POPC      H7R            35.9916397213      -41.9571667792        8.9412937025  MEMB      159             0.0000000000
     18402       159  POPC      H7S            35.3487466045      -42.8524980749        7.5097639369  MEMB      159             0.0000000000
     18403       159  POPC      C28            37.4261552717      -42.3686891312        7.4206003957  MEMB      159             0.0000000000
     18404       159  POPC      H8R            37.0708605157      -41.9087362858        6.4737475360  MEMB      159             0.0000000000
     18405       159  POPC      H8S            37.7868967690      -43.3512259595        7.0480307341  MEMB      159             0.0000000000
     18406       159  POPC      C29            38.6170541407      -41.7224601612        8.0345895835  MEMB      159             0.0000000000
     18407       159  POPC      H91            38.7825172499      -42.2016647674        9.0107997548  MEMB      159             0.0000000000
     18408       159  POPC      C210           39.1966701470      -40.6679999284        7.5382992865  MEMB      159             0.0000000000
     18409       159  POPC      H101           40.1393800913      -40.2784164371        7.9500300000  MEMB      159             0.0000000000
     18410       159  POPC      C211           38.8157428336      -39.8889713896        6.2363735073  MEMB      159             0.0000000000
     18411       159  POPC      H11R           38.7950071488      -38.8172765075        6.5285387380  MEMB      159             0.0000000000
     18412       159  POPC      H11S           37.7680511778      -40.1834212606        6.0128506774  MEMB      159             0.0000000000
     18413       159  POPC      C212           39.7227178901      -40.2305665932        5.0019642865  MEMB      159             0.0000000000
     18414       159  POPC      H12R           40.7530928967      -40.1991143891        5.4162825184  MEMB      159             0.0000000000
     18415       159  POPC      H12S           39.4613813430      -39.4356085154        4.2711664415  MEMB      159             0.0000000000
     18416       159  POPC      C213           39.4902344076      -41.5740607876        4.3277888919  MEMB      159             0.0000000000
     18417       159  POPC      H13R           38.3886506366      -41.6756410044        4.2252428453  MEMB      159             0.0000000000
     18418       159  POPC      H13S           40.0525600290      -42.3213426620        4.9275228385  MEMB      159             0.0000000000
     18419       159  POPC      C214           40.0566649633      -41.4704837098        2.9034476817  MEMB      159             0.0000000000
     18420       159  POPC      H14R           39.9349231882      -42.5008060327        2.5060374766  MEMB      159             0.0000000000
     18421       159  POPC      H14S           41.1146435062      -41.1316299986        2.8900325703  MEMB      159             0.0000000000
     18422       159  POPC      C215           39.3606344851      -40.6260849704        1.8824308694  MEMB      159             0.0000000000
     18423       159  POPC      H15R           39.9537265330      -40.4717713057        0.9557439435  MEMB      159             0.0000000000
     18424       159  POPC      H15S           39.1302851693      -39.6167233955        2.2854815070  MEMB      159             0.0000000000
     18425       159  POPC      C216           37.9762358943      -41.1186072488        1.4011522499  MEMB      159             0.0000000000
     18426       159  POPC      H16R           37.4929217333      -41.5660728603        2.2958598384  MEMB      159             0.0000000000
     18427       159  POPC      H16S           37.9974672714      -42.0368665193        0.7761159728  MEMB      159             0.0000000000
     18428       159  POPC      C217           37.1119028519      -40.0146351469        0.7681131392  MEMB      159             0.0000000000
     18429       159  POPC      H17R           36.2895859465      -40.5841414459        0.2846057030  MEMB      159             0.0000000000
     18430       159  POPC      H17S           37.6801040912      -39.5671502373       -0.0752292573  MEMB      159             0.0000000000
     18431       159  POPC      C218           36.5716085585      -38.9799676877        1.7914082468  MEMB      159             0.0000000000
     18432       159  POPC      H18R           36.2555428003      -39.5554551895        2.6876434066  MEMB      159             0.0000000000
     18433       159  POPC      H18S           35.7056176616      -38.3299269092        1.5427555241  MEMB      159             0.0000000000
     18434       159  POPC      H18T           37.3999500898      -38.2848571652        2.0463463833  MEMB      159             0.0000000000
     18435       159  POPC      C33            34.4140191432      -39.0662534679       12.3846523110  MEMB      159             0.0000000000
     18436       159  POPC      H3X            35.0084836074      -38.1389513422       12.2395881816  MEMB      159             0.0000000000
     18437       159  POPC      H3Y            33.7465582023      -38.7537539107       13.2160132000  MEMB      159             0.0000000000
     18438       159  POPC      C34            33.8329893890      -39.2183972507       10.9416167653  MEMB      159             0.0000000000
     18439       159  POPC      H4X            33.0444327980      -38.4389532518       10.8711457436  MEMB      159             0.0000000000
     18440       159  POPC      H4Y            33.4091733789      -40.2452199828       10.9232864100  MEMB      159             0.0000000000
     18441       159  POPC      C35            34.6936557237      -39.0400670037        9.6935184070  MEMB      159             0.0000000000
     18442       159  POPC      H5X            35.5745114032      -39.7054690367        9.8186361319  MEMB      159             0.0000000000
     18443       159  POPC      H5Y            35.2026613654      -38.0565121194        9.7821412736  MEMB      159             0.0000000000
     18444       159  POPC      C36            33.9828897960      -39.3130793028        8.3431905032  MEMB      159             0.0000000000
     18445       159  POPC      H6X            33.1867163519      -38.5610979711        8.1562340321  MEMB      159             0.0000000000
     18446       159  POPC      H6Y            33.4944372809      -40.3108980085        8.3335517672  MEMB      159             0.0000000000
     18447       159  POPC      C37            34.8831845670      -39.3044931709        7.1072841467  MEMB      159             0.0000000000
     18448       159  POPC      H7X            35.2257954492      -40.3482240715        6.9412575553  MEMB      159             0.0000000000
     18449       159  POPC      H7Y            35.7609858496      -38.6516296269        7.3010761667  MEMB      159             0.0000000000
     18450       159  POPC      C38            34.1276470584      -38.9763978080        5.7697244571  MEMB      159             0.0000000000
     18451       159  POPC      H8X            34.7813715234      -39.1703409690        4.8925981623  MEMB      159             0.0000000000
     18452       159  POPC      H8Y            33.8765825825      -37.8979985642        5.8610599755  MEMB      159             0.0000000000
     18453       159  POPC      C39            32.8316176099      -39.7993180040        5.4740300854  MEMB      159             0.0000000000
     18454       159  POPC      H9X            32.4445484612      -39.4599879561        4.4894723032  MEMB      159             0.0000000000
     18455       159  POPC      H9Y            32.0297998805      -39.5942149484        6.2152070841  MEMB      159             0.0000000000
     18456       159  POPC      C310           33.1176528388      -41.3126468773        5.2447723534  MEMB      159             0.0000000000
     18457       159  POPC      H10X           33.4440908427      -41.8451423322        6.1635802616  MEMB      159             0.0000000000
     18458       159  POPC      H10Y           33.8874719140      -41.3761259651        4.4462306326  MEMB      159             0.0000000000
     18459       159  POPC      C311           31.8264583212      -42.1382687052        4.7414324803  MEMB      159             0.0000000000
     18460       159  POPC      H11X           31.3760961803      -41.5624300161        3.9048289420  MEMB      159             0.0000000000
     18461       159  POPC      H11Y           31.1701181667      -42.1341281746        5.6378258526  MEMB      159             0.0000000000
     18462       159  POPC      C312           32.1805574486      -43.6324018141        4.3468860517  MEMB      159             0.0000000000
     18463       159  POPC      H12X           31.1918298611      -44.1243679706        4.2256083154  MEMB      159             0.0000000000
     18464       159  POPC      H12Y           32.7895113050      -44.1779446152        5.0991360635  MEMB      159             0.0000000000
     18465       159  POPC      C313           33.0136999969      -43.6436826053        3.0489966449  MEMB      159             0.0000000000
     18466       159  POPC      H13X           34.0523587624      -43.3326733660        3.2914471455  MEMB      159             0.0000000000
     18467       159  POPC      H13Y           32.6166961116      -42.8899939633        2.3357909446  MEMB      159             0.0000000000
     18468       159  POPC      C314           33.0302246038      -44.9671181141        2.3030825874  MEMB      159             0.0000000000
     18469       159  POPC      H14X           33.0667866831      -45.8003754744        3.0370212454  MEMB      159             0.0000000000
     18470       159  POPC      H14Y           33.9688133832      -45.0802912427        1.7195048500  MEMB      159             0.0000000000
     18471       159  POPC      C315           31.8704365325      -45.0522495923        1.2548228636  MEMB      159             0.0000000000
     18472       159  POPC      H15X           32.2325995565      -44.4649855579        0.3840302332  MEMB      159             0.0000000000
     18473       159  POPC      H15Y           30.9812712262      -44.7580676134        1.8524544413  MEMB      159             0.0000000000
     18474       159  POPC      C316           31.4469811756      -46.4734459615        0.7437496504  MEMB      159             0.0000000000
     18475       159  POPC      H16X           31.1471032560      -47.0450956528        1.6479677597  MEMB      159             0.0000000000
     18476       159  POPC      H16Y           32.3086100893      -46.9327196178        0.2136703551  MEMB      159             0.0000000000
     18477       159  POPC      H16Z           30.6778771825      -46.5267217375       -0.0562265676  MEMB      159             0.0000000000
     18478       160  POPC      N              28.3447338959      -52.6021001099       20.6270876583  MEMB      160             0.0000000000
     18479       160  POPC      C12            28.8994785464      -53.2844986164       19.3895312989  MEMB      160             0.0000000000
     18480       160  POPC      H12A           29.1372700453      -54.2941805871       19.6901931688  MEMB      160             0.0000000000
     18481       160  POPC      H12B           29.8560003533      -52.8734844805       19.1022454889  MEMB      160             0.0000000000
     18482       160  POPC      C13            29.3826344539      -52.3926023808       21.6628017360  MEMB      160             0.0000000000
     18483       160  POPC      H13A           29.4265727765      -53.2776238277       22.2802208492  MEMB      160             0.0000000000
     18484       160  POPC      H13B           30.3090143338      -52.0732013027       21.2087057809  MEMB      160             0.0000000000
     18485       160  POPC      H13C           29.0003500255      -51.6504321086       22.3479601880  MEMB      160             0.0000000000
     18486       160  POPC      C14            27.8732800139      -51.2955323554       20.1043373706  MEMB      160             0.0000000000
     18487       160  POPC      H14A           28.7205677087      -50.7575511056       19.7054893918  MEMB      160             0.0000000000
     18488       160  POPC      H14B           27.2327645897      -51.3451909634       19.2361933406  MEMB      160             0.0000000000
     18489       160  POPC      H14C           27.4031992416      -50.7035923719       20.8757200082  MEMB      160             0.0000000000
     18490       160  POPC      C15            27.1571392358      -53.3512086395       21.2173039845  MEMB      160             0.0000000000
     18491       160  POPC      H15A           26.7456295171      -52.7495374930       22.0142052802  MEMB      160             0.0000000000
     18492       160  POPC      H15B           27.3669079482      -54.3459701547       21.5817853688  MEMB      160             0.0000000000
     18493       160  POPC      H15C           26.4109718370      -53.4049100677       20.4383622666  MEMB      160             0.0000000000
     18494       160  POPC      C11            27.9516712498      -53.4769299988       18.1647026648  MEMB      160             0.0000000000
     18495       160  POPC      H11A           28.4608356855      -53.7768439824       17.2238922168  MEMB      160             0.0000000000
     18496       160  POPC      H11B           27.4085375033      -52.5451511045       17.8980289764  MEMB      160             0.0000000000
     18497       160  POPC      P              25.8938882029      -55.0861165612       17.6035231660  MEMB      160             0.0000000000
     18498       160  POPC      O13            24.7139066972      -54.2213923026       17.7136618611  MEMB      160             0.0000000000
     18499       160  POPC      O14            25.7597097224      -56.5110209585       17.8998603105  MEMB      160             0.0000000000
     18500       160  POPC      O12            27.0484801954      -54.5007748589       18.4933929979  MEMB      160             0.0000000000
     18501       160  POPC      O11            26.4203898729      -55.0265280294       16.1237969496  MEMB      160             0.0000000000
     18502       160  POPC      C1             27.0533495027      -56.1037825603       15.4813375131  MEMB      160             0.0000000000
     18503       160  POPC      HA             26.2987378434      -56.8511463821       15.1552555870  MEMB      160             0.0000000000
     18504       160  POPC      HB             27.7420142574      -56.6690787982       16.1450410056  MEMB      160             0.0000000000
     18505       160  POPC      C2             27.8002768839      -55.5618782645       14.1596267540  MEMB      160             0.0000000000
     18506       160  POPC      HS             28.6548529672      -54.9252717114       14.4738763060  MEMB      160             0.0000000000
     18507       160  POPC      O21            26.9552064631      -54.7813212009       13.2725957881  MEMB      160             0.0000000000
     18508       160  POPC      C21            27.0733844916      -53.4765320400       13.3897226797  MEMB      160             0.0000000000
     18509       160  POPC      O22            27.7270092370      -52.8879594208       14.2683399461  MEMB      160             0.0000000000
     18510       160  POPC      C22            26.4462014776      -52.8270184033       12.1645686705  MEMB      160             0.0000000000
     18511       160  POPC      H2R            25.5670556014      -52.1991624658       12.4238373792  MEMB      160             0.0000000000
     18512       160  POPC      H2S            25.9614771244      -53.5458703315       11.4698638216  MEMB      160             0.0000000000
     18513       160  POPC      C3             28.2430361918      -56.8091644237       13.3547870170  MEMB      160             0.0000000000
     18514       160  POPC      HX             28.8541511504      -57.4393198614       14.0357891967  MEMB      160             0.0000000000
     18515       160  POPC      HY             28.8658486651      -56.5343785714       12.4767678066  MEMB      160             0.0000000000
     18516       160  POPC      O31            27.1722488205      -57.6894985553       12.9608642381  MEMB      160             0.0000000000
     18517       160  POPC      C31            26.7693709634      -57.6073981378       11.6570467462  MEMB      160             0.0000000000
     18518       160  POPC      O32            27.4053018496      -57.1036756207       10.7390088361  MEMB      160             0.0000000000
     18519       160  POPC      C32            25.3572842657      -58.2553776459       11.4731625070  MEMB      160             0.0000000000
     18520       160  POPC      H2X            24.8106488931      -58.2931703446       12.4396419977  MEMB      160             0.0000000000
     18521       160  POPC      H2Y            25.4016177005      -59.2361157251       10.9530585529  MEMB      160             0.0000000000
     18522       160  POPC      C23            27.4769015051      -52.0546214521       11.4079032819  MEMB      160             0.0000000000
     18523       160  POPC      H3R            27.8139280404      -51.1858964024       12.0129246413  MEMB      160             0.0000000000
     18524       160  POPC      H3S            26.8819695726      -51.6511730647       10.5607869225  MEMB      160             0.0000000000
     18525       160  POPC      C24            28.5777006900      -52.8621081076       10.7771601122  MEMB      160             0.0000000000
     18526       160  POPC      H4R            29.0261782201      -53.4415727217       11.6122710414  MEMB      160             0.0000000000
     18527       160  POPC      H4S            29.2586569857      -52.0919597737       10.3558635574  MEMB      160             0.0000000000
     18528       160  POPC      C25            28.1603799534      -53.8176491481        9.6507788854  MEMB      160             0.0000000000
     18529       160  POPC      H5R            27.4279282674      -53.2041430379        9.0838170194  MEMB      160             0.0000000000
     18530       160  POPC      H5S            27.6640760766      -54.6300895738       10.2234431140  MEMB      160             0.0000000000
     18531       160  POPC      C26            29.1276624249      -54.5484872894        8.7884329628  MEMB      160             0.0000000000
     18532       160  POPC      H6R            29.6126845989      -53.8478904381        8.0755246102  MEMB      160             0.0000000000
     18533       160  POPC      H6S            28.5282174842      -55.2777312783        8.2026092194  MEMB      160             0.0000000000
     18534       160  POPC      C27            30.2848093201      -55.2407848537        9.6305988732  MEMB      160             0.0000000000
     18535       160  POPC      H7R            29.8045428601      -55.8131470126       10.4528318745  MEMB      160             0.0000000000
     18536       160  POPC      H7S            30.8874573087      -54.4206625431       10.0761724423  MEMB      160             0.0000000000
     18537       160  POPC      C28            31.0763509867      -56.2740055813        8.7709043199  MEMB      160             0.0000000000
     18538       160  POPC      H8R            32.0701667795      -56.4053881149        9.2498513918  MEMB      160             0.0000000000
     18539       160  POPC      H8S            31.3306407927      -55.8065669730        7.7956308636  MEMB      160             0.0000000000
     18540       160  POPC      C29            30.3097386933      -57.5818591458        8.6511136105  MEMB      160             0.0000000000
     18541       160  POPC      H91            30.1447398654      -58.1061710475        9.6039370800  MEMB      160             0.0000000000
     18542       160  POPC      C210           29.6456822870      -58.1999022782        7.6340255132  MEMB      160             0.0000000000
     18543       160  POPC      H101           29.0842680857      -59.1164427986        7.8680512231  MEMB      160             0.0000000000
     18544       160  POPC      C211           29.5322160811      -57.6055268947        6.2165910447  MEMB      160             0.0000000000
     18545       160  POPC      H11R           29.7085499650      -58.4302829147        5.4934005897  MEMB      160             0.0000000000
     18546       160  POPC      H11S           30.3843268246      -56.9200437099        6.0207826281  MEMB      160             0.0000000000
     18547       160  POPC      C212           28.1560928108      -56.9804545522        5.8659551851  MEMB      160             0.0000000000
     18548       160  POPC      H12R           28.0268904052      -56.9268375896        4.7637968661  MEMB      160             0.0000000000
     18549       160  POPC      H12S           28.2063704543      -55.9407820383        6.2543802517  MEMB      160             0.0000000000
     18550       160  POPC      C213           26.8876837956      -57.5669751449        6.4332350548  MEMB      160             0.0000000000
     18551       160  POPC      H13R           27.1430033535      -57.7395570601        7.5006381618  MEMB      160             0.0000000000
     18552       160  POPC      H13S           26.7165206703      -58.5856088620        6.0240779009  MEMB      160             0.0000000000
     18553       160  POPC      C214           25.6060075548      -56.6377214931        6.2663215303  MEMB      160             0.0000000000
     18554       160  POPC      H14R           25.8274233347      -55.6374372277        6.6961208179  MEMB      160             0.0000000000
     18555       160  POPC      H14S           24.7792581509      -57.1286935029        6.8228759634  MEMB      160             0.0000000000
     18556       160  POPC      C215           25.1747919850      -56.5130194971        4.6936311187  MEMB      160             0.0000000000
     18557       160  POPC      H15R           25.9806961976      -55.9425258304        4.1843412840  MEMB      160             0.0000000000
     18558       160  POPC      H15S           24.2518539392      -55.8973464285        4.6348677009  MEMB      160             0.0000000000
     18559       160  POPC      C216           24.8431173391      -57.8896512985        4.0599964083  MEMB      160             0.0000000000
     18560       160  POPC      H16R           24.0157780959      -58.3545573060        4.6376580474  MEMB      160             0.0000000000
     18561       160  POPC      H16S           25.7659896322      -58.5048658685        3.9956648676  MEMB      160             0.0000000000
     18562       160  POPC      C217           24.3941246595      -57.8477384886        2.6199598064  MEMB      160             0.0000000000
     18563       160  POPC      H17R           23.5175808226      -57.1653348760        2.6021438666  MEMB      160             0.0000000000
     18564       160  POPC      H17S           24.0828063385      -58.8747231176        2.3323753103  MEMB      160             0.0000000000
     18565       160  POPC      C218           25.4692364752      -57.2950328695        1.7138460708  MEMB      160             0.0000000000
     18566       160  POPC      H18R           25.1271693037      -57.3349296200        0.6575703145  MEMB      160             0.0000000000
     18567       160  POPC      H18S           26.5188356544      -57.6475060367        1.8056382201  MEMB      160             0.0000000000
     18568       160  POPC      H18T           25.5210501531      -56.2360046671        2.0456521223  MEMB      160             0.0000000000
     18569       160  POPC      C33            24.5109003103      -57.4726803457       10.4788393447  MEMB      160             0.0000000000
     18570       160  POPC      H3X            23.5371530029      -57.9596455209       10.2574758417  MEMB      160             0.0000000000
     18571       160  POPC      H3Y            25.0959598575      -57.5381324723        9.5366389398  MEMB      160             0.0000000000
     18572       160  POPC      C34            24.1345475289      -56.0562553503       10.9668837749  MEMB      160             0.0000000000
     18573       160  POPC      H4X            25.0692194148      -55.4653969430       11.0745688268  MEMB      160             0.0000000000
     18574       160  POPC      H4Y            23.7044798410      -56.0322035903       11.9909854736  MEMB      160             0.0000000000
     18575       160  POPC      C35            23.2284532780      -55.2667746082        9.9854325198  MEMB      160             0.0000000000
     18576       160  POPC      H5X            22.3337321348      -55.9045824049        9.8211264795  MEMB      160             0.0000000000
     18577       160  POPC      H5Y            23.8047864744      -55.0604473498        9.0582915034  MEMB      160             0.0000000000
     18578       160  POPC      C36            22.8446347381      -53.8678372729       10.6370305951  MEMB      160             0.0000000000
     18579       160  POPC      H6X            23.6856626665      -53.5659387946       11.2972201327  MEMB      160             0.0000000000
     18580       160  POPC      H6Y            21.9861486383      -54.1102249236       11.2992770234  MEMB      160             0.0000000000
     18581       160  POPC      C37            22.3477107585      -52.7934215277        9.6757773885  MEMB      160             0.0000000000
     18582       160  POPC      H7X            22.1911033788      -51.8957123835       10.3113198337  MEMB      160             0.0000000000
     18583       160  POPC      H7Y            21.3849464135      -53.1689809381        9.2679037367  MEMB      160             0.0000000000
     18584       160  POPC      C38            23.2666830016      -52.3368771579        8.5062651705  MEMB      160             0.0000000000
     18585       160  POPC      H8X            22.6332967242      -51.5291109627        8.0812273370  MEMB      160             0.0000000000
     18586       160  POPC      H8Y            23.4378430780      -53.1925029197        7.8185655266  MEMB      160             0.0000000000
     18587       160  POPC      C39            24.6587216236      -51.7379862213        8.9084189110  MEMB      160             0.0000000000
     18588       160  POPC      H9X            25.3035920571      -52.5609437787        9.2841901053  MEMB      160             0.0000000000
     18589       160  POPC      H9Y            24.5000155738      -51.0219863620        9.7429710541  MEMB      160             0.0000000000
     18590       160  POPC      C310           25.5486097309      -51.1042607240        7.7902946077  MEMB      160             0.0000000000
     18591       160  POPC      H10X           26.5865060065      -50.8766115979        8.1147458794  MEMB      160             0.0000000000
     18592       160  POPC      H10Y           25.1051017988      -50.1777900577        7.3668879944  MEMB      160             0.0000000000
     18593       160  POPC      C311           25.6514471165      -52.1277550733        6.6301486317  MEMB      160             0.0000000000
     18594       160  POPC      H11X           24.6876577927      -52.0964354547        6.0783782624  MEMB      160             0.0000000000
     18595       160  POPC      H11Y           25.7683128974      -53.0920564467        7.1693944922  MEMB      160             0.0000000000
     18596       160  POPC      C312           26.8554312387      -51.7990028164        5.7652296495  MEMB      160             0.0000000000
     18597       160  POPC      H12X           27.7117586762      -51.5182249981        6.4149899863  MEMB      160             0.0000000000
     18598       160  POPC      H12Y           26.6561246621      -50.9626439334        5.0615951221  MEMB      160             0.0000000000
     18599       160  POPC      C313           27.1767568112      -52.9441970477        4.7840966918  MEMB      160             0.0000000000
     18600       160  POPC      H13X           26.3581915486      -52.8760354955        4.0360152777  MEMB      160             0.0000000000
     18601       160  POPC      H13Y           27.1735585190      -53.9460249941        5.2643587559  MEMB      160             0.0000000000
     18602       160  POPC      C314           28.5769551211      -52.8984114922        4.1727115456  MEMB      160             0.0000000000
     18603       160  POPC      H14X           29.4018710134      -53.0603484767        4.8990804895  MEMB      160             0.0000000000
     18604       160  POPC      H14Y           28.7249870123      -51.8396403397        3.8703697037  MEMB      160             0.0000000000
     18605       160  POPC      C315           28.6286227299      -53.9291967607        3.0612922421  MEMB      160             0.0000000000
     18606       160  POPC      H15X           27.7728182031      -53.6987661228        2.3913503734  MEMB      160             0.0000000000
     18607       160  POPC      H15Y           28.5439971532      -54.9022448135        3.5907606257  MEMB      160             0.0000000000
     18608       160  POPC      C316           29.9658580089      -53.7650571667        2.3848694646  MEMB      160             0.0000000000
     18609       160  POPC      H16X           30.0745334026      -54.5233904033        1.5802309843  MEMB      160             0.0000000000
     18610       160  POPC      H16Y           30.7810977395      -53.9253125732        3.1224483412  MEMB      160             0.0000000000
     18611       160  POPC      H16Z           30.0944289786      -52.7301980078        2.0016492434  MEMB      160             0.0000000000
     18612       161  POPE      N              46.7321218660      -14.8776891961       20.0964009855  MEMB      161             0.0000000000
     18613       161  POPE      HN1            45.7752213581      -14.8235454497       19.6926563563  MEMB      161             0.0000000000
     18614       161  POPE      HN2            46.6742185986      -15.5681688498       20.8719556359  MEMB      161             0.0000000000
     18615       161  POPE      HN3            47.0092516532      -13.9466633806       20.4678711270  MEMB      161             0.0000000000
     18616       161  POPE      C12            47.7000507655      -15.4489870282       19.0935020887  MEMB      161             0.0000000000
     18617       161  POPE      H12A           47.4409441102      -15.0140566783       18.1045531041  MEMB      161             0.0000000000
     18618       161  POPE      H12B           47.5266204015      -16.5430555448       19.0083135821  MEMB      161             0.0000000000
     18619       161  POPE      C11            49.1737188099      -15.0637741593       19.4841148646  MEMB      161             0.0000000000
     18620       161  POPE      H11A           49.4356577147      -15.3533610968       20.5242342383  MEMB      161             0.0000000000
     18621       161  POPE      H11B           49.1919608692      -13.9571766647       19.3870059809  MEMB      161             0.0000000000
     18622       161  POPE      P              50.6574507586      -17.1483334098       18.7505027493  MEMB      161             0.0000000000
     18623       161  POPE      O13            49.5950311384      -18.1825184048       18.6567817339  MEMB      161             0.0000000000
     18624       161  POPE      O14            51.6478973592      -17.2766999442       19.8783585067  MEMB      161             0.0000000000
     18625       161  POPE      O11            51.4307020890      -17.2789012282       17.3959903859  MEMB      161             0.0000000000
     18626       161  POPE      O12            50.1060696140      -15.6725230301       18.6443486831  MEMB      161             0.0000000000
     18627       161  POPE      C1             52.3952656899      -18.3443509924       17.2753858420  MEMB      161             0.0000000000
     18628       161  POPE      HA             52.0686555697      -19.2983862980       17.7417155106  MEMB      161             0.0000000000
     18629       161  POPE      HB             53.3047244463      -18.1050338875       17.8669371568  MEMB      161             0.0000000000
     18630       161  POPE      C2             52.7520030792      -18.6636657248       15.7656666171  MEMB      161             0.0000000000
     18631       161  POPE      HS             53.5940392019      -19.3861828395       15.8228087492  MEMB      161             0.0000000000
     18632       161  POPE      O21            53.0188531033      -17.4430926246       15.1285153520  MEMB      161             0.0000000000
     18633       161  POPE      C21            53.4447632288      -17.5081373752       13.8115114070  MEMB      161             0.0000000000
     18634       161  POPE      O22            53.7710162017      -18.5624274946       13.2941595271  MEMB      161             0.0000000000
     18635       161  POPE      C22            53.4987712088      -16.1001803293       13.3564051860  MEMB      161             0.0000000000
     18636       161  POPE      H2R            54.5549102457      -15.7661474501       13.4419252935  MEMB      161             0.0000000000
     18637       161  POPE      H2S            52.8412767491      -15.4454893332       13.9674710488  MEMB      161             0.0000000000
     18638       161  POPE      C3             51.5617552757      -19.3605076783       15.0612293736  MEMB      161             0.0000000000
     18639       161  POPE      HX             51.5722529117      -20.3533687583       15.5596645282  MEMB      161             0.0000000000
     18640       161  POPE      HY             51.7725515637      -19.4939965031       13.9786092454  MEMB      161             0.0000000000
     18641       161  POPE      O31            50.3511399298      -18.6963679170       15.1836936602  MEMB      161             0.0000000000
     18642       161  POPE      C31            49.3099397549      -19.4107199096       14.9001918708  MEMB      161             0.0000000000
     18643       161  POPE      O32            49.3732325479      -20.5359468551       14.4480952060  MEMB      161             0.0000000000
     18644       161  POPE      C32            48.0312063922      -18.5915656149       15.1911464758  MEMB      161             0.0000000000
     18645       161  POPE      H2X            48.0283880981      -17.5891798268       14.7120473568  MEMB      161             0.0000000000
     18646       161  POPE      H2Y            48.0794529475      -18.5943326819       16.3010948873  MEMB      161             0.0000000000
     18647       161  POPE      C23            53.1442952782      -16.0297671727       11.8240478341  MEMB      161             0.0000000000
     18648       161  POPE      H3R            52.1137090530      -16.3313371241       11.5389711303  MEMB      161             0.0000000000
     18649       161  POPE      H3S            53.9494546898      -16.6431920988       11.3660638069  MEMB      161             0.0000000000
     18650       161  POPE      C24            53.4154174507      -14.6728756723       11.3429352730  MEMB      161             0.0000000000
     18651       161  POPE      H4R            54.4909852862      -14.3987446989       11.3911701313  MEMB      161             0.0000000000
     18652       161  POPE      H4S            52.7970413005      -13.8626493584       11.7850501948  MEMB      161             0.0000000000
     18653       161  POPE      C25            53.0885078287      -14.6283479973        9.8504274063  MEMB      161             0.0000000000
     18654       161  POPE      H5R            53.2480238862      -15.6103367346        9.3558836438  MEMB      161             0.0000000000
     18655       161  POPE      H5S            53.7626087762      -14.0664496536        9.1691208808  MEMB      161             0.0000000000
     18656       161  POPE      C26            51.6440632650      -14.2825577813        9.5249082943  MEMB      161             0.0000000000
     18657       161  POPE      H6R            51.2505020490      -13.2841135036        9.8122052093  MEMB      161             0.0000000000
     18658       161  POPE      H6S            51.0609756022      -14.9250513642       10.2188329358  MEMB      161             0.0000000000
     18659       161  POPE      C27            51.3485914618      -14.3653278094        8.0019945691  MEMB      161             0.0000000000
     18660       161  POPE      H7R            51.7122670251      -15.3801546159        7.7333174578  MEMB      161             0.0000000000
     18661       161  POPE      H7S            51.9969347515      -13.6163446231        7.4990075381  MEMB      161             0.0000000000
     18662       161  POPE      C28            49.9202208078      -14.2846281888        7.4148690950  MEMB      161             0.0000000000
     18663       161  POPE      H8R            49.3323030034      -15.0859253589        7.9114546970  MEMB      161             0.0000000000
     18664       161  POPE      H8S            50.0615284461      -14.5879200179        6.3554510280  MEMB      161             0.0000000000
     18665       161  POPE      C29            49.3682592600      -12.8549361387        7.4355865625  MEMB      161             0.0000000000
     18666       161  POPE      H91            49.6843462483      -12.1583959183        8.2261058546  MEMB      161             0.0000000000
     18667       161  POPE      C210           48.3296713097      -12.4350313687        6.7185288451  MEMB      161             0.0000000000
     18668       161  POPE      H101           48.0521899721      -11.3753834111        6.8192775291  MEMB      161             0.0000000000
     18669       161  POPE      C211           47.4640209248      -13.1602170500        5.7955415130  MEMB      161             0.0000000000
     18670       161  POPE      H11R           48.0217205421      -14.0386792043        5.4061879999  MEMB      161             0.0000000000
     18671       161  POPE      H11S           47.1755761185      -12.4866488602        4.9604217628  MEMB      161             0.0000000000
     18672       161  POPE      C212           46.2052577479      -13.7853462947        6.4319005308  MEMB      161             0.0000000000
     18673       161  POPE      H12R           45.7498105519      -13.0151022154        7.0903938490  MEMB      161             0.0000000000
     18674       161  POPE      H12S           46.3288095342      -14.6900755073        7.0647672231  MEMB      161             0.0000000000
     18675       161  POPE      C213           45.0570618632      -14.1192271344        5.4531717092  MEMB      161             0.0000000000
     18676       161  POPE      H13R           44.9344532389      -13.3232740682        4.6878306415  MEMB      161             0.0000000000
     18677       161  POPE      H13S           44.1632300782      -14.1249573504        6.1129845717  MEMB      161             0.0000000000
     18678       161  POPE      C214           45.0082898970      -15.5010633023        4.7823811507  MEMB      161             0.0000000000
     18679       161  POPE      H14R           44.0257826535      -15.6667132820        4.2908928336  MEMB      161             0.0000000000
     18680       161  POPE      H14S           45.0268167643      -16.1655603347        5.6725612626  MEMB      161             0.0000000000
     18681       161  POPE      C215           46.0226918648      -15.8936137256        3.6432807333  MEMB      161             0.0000000000
     18682       161  POPE      H15R           45.9273329314      -16.9982874495        3.5731112105  MEMB      161             0.0000000000
     18683       161  POPE      H15S           46.9637642999      -15.5591199243        4.1299203195  MEMB      161             0.0000000000
     18684       161  POPE      C216           45.7427310499      -15.2525266735        2.2235791726  MEMB      161             0.0000000000
     18685       161  POPE      H16R           45.3329436603      -14.2277715375        2.3511420669  MEMB      161             0.0000000000
     18686       161  POPE      H16S           44.9149757080      -15.7791018474        1.7021770627  MEMB      161             0.0000000000
     18687       161  POPE      C217           46.9951138168      -15.3301531705        1.2702299092  MEMB      161             0.0000000000
     18688       161  POPE      H17R           47.9134218904      -15.0825971155        1.8444669736  MEMB      161             0.0000000000
     18689       161  POPE      H17S           46.9387890119      -14.6399287435        0.4014744275  MEMB      161             0.0000000000
     18690       161  POPE      C218           47.2179398600      -16.7138941584        0.6196956841  MEMB      161             0.0000000000
     18691       161  POPE      H18R           47.2543484312      -17.4600130826        1.4420715485  MEMB      161             0.0000000000
     18692       161  POPE      H18S           48.1348126178      -16.7016778589       -0.0076139079  MEMB      161             0.0000000000
     18693       161  POPE      H18T           46.4034449233      -17.0784858576       -0.0421151444  MEMB      161             0.0000000000
     18694       161  POPE      C33            46.7375438621      -19.3095196130       14.7757977235  MEMB      161             0.0000000000
     18695       161  POPE      H3X            45.9242620848      -19.0029439233       15.4678273646  MEMB      161             0.0000000000
     18696       161  POPE      H3Y            46.7927934139      -20.4045988598       14.9548777547  MEMB      161             0.0000000000
     18697       161  POPE      C34            46.3488270201      -19.0341911884       13.2523451088  MEMB      161             0.0000000000
     18698       161  POPE      H4X            46.4514851681      -17.9329159892       13.1475819634  MEMB      161             0.0000000000
     18699       161  POPE      H4Y            45.2671773177      -19.2668631844       13.1512563401  MEMB      161             0.0000000000
     18700       161  POPE      C35            47.1833152318      -19.8194976507       12.1262432159  MEMB      161             0.0000000000
     18701       161  POPE      H5X            47.1144637592      -20.9212636308       12.2515108957  MEMB      161             0.0000000000
     18702       161  POPE      H5Y            48.2269291413      -19.6421137018       12.4634765688  MEMB      161             0.0000000000
     18703       161  POPE      C36            46.9367995214      -19.4910409350       10.6493127854  MEMB      161             0.0000000000
     18704       161  POPE      H6X            46.1231909645      -18.7348937939       10.6738846217  MEMB      161             0.0000000000
     18705       161  POPE      H6Y            46.6107827269      -20.3989657483       10.0982169639  MEMB      161             0.0000000000
     18706       161  POPE      C37            48.1633981545      -18.8671030363        9.8813266455  MEMB      161             0.0000000000
     18707       161  POPE      H7X            48.4978866481      -17.9203540773       10.3568310904  MEMB      161             0.0000000000
     18708       161  POPE      H7Y            47.8064568307      -18.6918803525        8.8439203143  MEMB      161             0.0000000000
     18709       161  POPE      C38            49.3935654987      -19.7911663900        9.8399583174  MEMB      161             0.0000000000
     18710       161  POPE      H8X            48.9564033335      -20.8076214621        9.7398128499  MEMB      161             0.0000000000
     18711       161  POPE      H8Y            49.9073743245      -19.7797157944       10.8249405054  MEMB      161             0.0000000000
     18712       161  POPE      C39            50.3742451299      -19.4627732856        8.7678024542  MEMB      161             0.0000000000
     18713       161  POPE      H9X            51.3011821919      -19.9383350756        9.1537420790  MEMB      161             0.0000000000
     18714       161  POPE      H9Y            50.5644136657      -18.3687381258        8.8030751269  MEMB      161             0.0000000000
     18715       161  POPE      C310           50.0642358871      -20.0094947862        7.3849026808  MEMB      161             0.0000000000
     18716       161  POPE      H10X           49.0407845119      -19.6769386123        7.1087235086  MEMB      161             0.0000000000
     18717       161  POPE      H10Y           49.9416561759      -21.1087040854        7.2798596455  MEMB      161             0.0000000000
     18718       161  POPE      C311           51.1710216841      -19.5116886871        6.4092383395  MEMB      161             0.0000000000
     18719       161  POPE      H11X           51.1249732980      -20.1132960981        5.4763559316  MEMB      161             0.0000000000
     18720       161  POPE      H11Y           52.1987817098      -19.5725389367        6.8267638571  MEMB      161             0.0000000000
     18721       161  POPE      C312           50.8856447786      -18.0306584885        6.0271672823  MEMB      161             0.0000000000
     18722       161  POPE      H12X           51.4380580442      -17.4153740716        6.7691824934  MEMB      161             0.0000000000
     18723       161  POPE      H12Y           49.7790430231      -17.9425845271        6.0718488628  MEMB      161             0.0000000000
     18724       161  POPE      C313           51.3247562347      -17.6622673935        4.5454757780  MEMB      161             0.0000000000
     18725       161  POPE      H13X           50.7578189565      -18.3318981876        3.8639353252  MEMB      161             0.0000000000
     18726       161  POPE      H13Y           52.3877545122      -17.9701459285        4.4476675438  MEMB      161             0.0000000000
     18727       161  POPE      C314           51.0671953427      -16.1870417241        4.0936427437  MEMB      161             0.0000000000
     18728       161  POPE      H14X           51.7268711314      -15.4624875057        4.6172554622  MEMB      161             0.0000000000
     18729       161  POPE      H14Y           50.0356728905      -15.9179683105        4.4065036027  MEMB      161             0.0000000000
     18730       161  POPE      C315           51.3122898765      -16.0051163474        2.6118346962  MEMB      161             0.0000000000
     18731       161  POPE      H15X           50.7654831933      -15.1019626134        2.2659489867  MEMB      161             0.0000000000
     18732       161  POPE      H15Y           50.9493549763      -16.9094704131        2.0782214926  MEMB      161             0.0000000000
     18733       161  POPE      C316           52.8305817118      -15.9644912965        2.3093002124  MEMB      161             0.0000000000
     18734       161  POPE      H16X           53.4208354797      -15.3272532734        3.0020122979  MEMB      161             0.0000000000
     18735       161  POPE      H16Y           52.9100507854      -15.5536933331        1.2801018029  MEMB      161             0.0000000000
     18736       161  POPE      H16Z           53.2451503969      -16.9952156028        2.3171185211  MEMB      161             0.0000000000
     18737       162  POPE      N             -54.1118384913      -21.3696835242       21.3179876061  MEMB      162             0.0000000000
     18738       162  POPE      HN1           -54.7802590325      -20.5730100229       21.3291786821  MEMB      162             0.0000000000
     18739       162  POPE      HN2           -54.4229413905      -22.0650810595       22.0259686622  MEMB      162             0.0000000000
     18740       162  POPE      HN3           -53.2036848488      -20.9899251509       21.6536070005  MEMB      162             0.0000000000
     18741       162  POPE      C12           -53.9844416625      -22.2261879169       20.0624425080  MEMB      162             0.0000000000
     18742       162  POPE      H12A          -54.9758857866      -22.6474440178       19.7905918439  MEMB      162             0.0000000000
     18743       162  POPE      H12B          -53.3634936095      -23.1039889256       20.3421027540  MEMB      162             0.0000000000
     18744       162  POPE      C11           -53.2036666445      -21.5131739365       18.9480070716  MEMB      162             0.0000000000
     18745       162  POPE      H11A          -53.6432949109      -20.5315725879       18.6696066012  MEMB      162             0.0000000000
     18746       162  POPE      H11B          -53.3528934482      -22.0754169449       18.0014685992  MEMB      162             0.0000000000
     18747       162  POPE      P             -50.7920255567      -20.5352457784       18.3871859689  MEMB      162             0.0000000000
     18748       162  POPE      O13           -49.4132624421      -20.7904262566       18.8665570463  MEMB      162             0.0000000000
     18749       162  POPE      O14           -51.1963278267      -19.0954445412       18.0836274079  MEMB      162             0.0000000000
     18750       162  POPE      O11           -51.0323159780      -21.3192689267       16.9826853792  MEMB      162             0.0000000000
     18751       162  POPE      O12           -51.8452587711      -21.2719768407       19.3515070088  MEMB      162             0.0000000000
     18752       162  POPE      C1            -50.7073956208      -22.6825981221       17.0037807970  MEMB      162             0.0000000000
     18753       162  POPE      HA            -51.5332142587      -23.1116058864       17.6106556269  MEMB      162             0.0000000000
     18754       162  POPE      HB            -49.7319201414      -22.9165854760       17.4812937444  MEMB      162             0.0000000000
     18755       162  POPE      C2            -50.6263979119      -23.3595803649       15.6169734923  MEMB      162             0.0000000000
     18756       162  POPE      HS            -49.5639889707      -23.6692864218       15.5185337083  MEMB      162             0.0000000000
     18757       162  POPE      O21           -51.0650551815      -22.5784213518       14.5275898724  MEMB      162             0.0000000000
     18758       162  POPE      C21           -50.3463984631      -21.5170236297       14.2344560987  MEMB      162             0.0000000000
     18759       162  POPE      O22           -49.2355419933      -21.2682323085       14.6891144839  MEMB      162             0.0000000000
     18760       162  POPE      C22           -51.0474605966      -20.7684679895       13.0956856407  MEMB      162             0.0000000000
     18761       162  POPE      H2R           -51.9636974250      -20.2920985035       13.5054457813  MEMB      162             0.0000000000
     18762       162  POPE      H2S           -51.1613397032      -21.4689789054       12.2409125878  MEMB      162             0.0000000000
     18763       162  POPE      C3            -51.4244142769      -24.7202680868       15.6800892480  MEMB      162             0.0000000000
     18764       162  POPE      HX            -52.4892071800      -24.4490508151       15.8443404902  MEMB      162             0.0000000000
     18765       162  POPE      HY            -51.1201213734      -25.3571991459       16.5380205929  MEMB      162             0.0000000000
     18766       162  POPE      O31           -51.3712313084      -25.4346812196       14.4330958258  MEMB      162             0.0000000000
     18767       162  POPE      C31           -51.8209005700      -26.6881559190       14.4487392440  MEMB      162             0.0000000000
     18768       162  POPE      O32           -52.2862949077      -27.2572679959       15.3596262778  MEMB      162             0.0000000000
     18769       162  POPE      C32           -51.7692738285      -27.2538423846       13.0289729535  MEMB      162             0.0000000000
     18770       162  POPE      H2X           -51.8129917793      -28.3555438162       13.1655878719  MEMB      162             0.0000000000
     18771       162  POPE      H2Y           -50.8356073818      -26.9145131012       12.5315357800  MEMB      162             0.0000000000
     18772       162  POPE      C23           -50.1447134817      -19.5705783556       12.5825779122  MEMB      162             0.0000000000
     18773       162  POPE      H3R           -49.2753121259      -20.1041662770       12.1424116831  MEMB      162             0.0000000000
     18774       162  POPE      H3S           -49.9518438803      -18.9557100127       13.4875966229  MEMB      162             0.0000000000
     18775       162  POPE      C24           -50.7614396887      -18.6591529255       11.5686952401  MEMB      162             0.0000000000
     18776       162  POPE      H4R           -50.9430961624      -19.1529152131       10.5901657721  MEMB      162             0.0000000000
     18777       162  POPE      H4S           -49.9325383993      -17.9368541457       11.4089195280  MEMB      162             0.0000000000
     18778       162  POPE      C25           -52.2091273297      -17.9960972237       11.9579158927  MEMB      162             0.0000000000
     18779       162  POPE      H5R           -52.2547665040      -16.9567461336       11.5680605583  MEMB      162             0.0000000000
     18780       162  POPE      H5S           -52.0711435034      -17.7748996361       13.0378945695  MEMB      162             0.0000000000
     18781       162  POPE      C26           -53.2789720018      -18.8457441235       11.3463312069  MEMB      162             0.0000000000
     18782       162  POPE      H6R           -53.1854133797      -19.8703798003       11.7654844994  MEMB      162             0.0000000000
     18783       162  POPE      H6S           -52.9786595641      -18.8505770325       10.2767006887  MEMB      162             0.0000000000
     18784       162  POPE      C27           -54.7254074183      -18.3341659208       11.3774467437  MEMB      162             0.0000000000
     18785       162  POPE      H7R           -54.8348182585      -17.3427295147       10.8881570448  MEMB      162             0.0000000000
     18786       162  POPE      H7S           -54.8693015188      -18.1405344161       12.4619382405  MEMB      162             0.0000000000
     18787       162  POPE      C28           -55.7823321538      -19.3214118382       10.8561624187  MEMB      162             0.0000000000
     18788       162  POPE      H8R           -55.7176692744      -19.1250525095        9.7645662670  MEMB      162             0.0000000000
     18789       162  POPE      H8S           -56.7279842104      -18.8415944155       11.1875821253  MEMB      162             0.0000000000
     18790       162  POPE      C29           -55.6719331325      -20.7518782473       11.1821297647  MEMB      162             0.0000000000
     18791       162  POPE      H91           -55.6435688590      -21.0224736906       12.2479504918  MEMB      162             0.0000000000
     18792       162  POPE      C210          -55.3807456076      -21.8581067774       10.4122316373  MEMB      162             0.0000000000
     18793       162  POPE      H101          -55.3968271950      -22.8820358858       10.8138662727  MEMB      162             0.0000000000
     18794       162  POPE      C211          -55.1041930393      -21.9411009054        8.9552040363  MEMB      162             0.0000000000
     18795       162  POPE      H11R          -55.0659593486      -20.8923637563        8.5904985537  MEMB      162             0.0000000000
     18796       162  POPE      H11S          -55.8862646847      -22.5194523775        8.4183658838  MEMB      162             0.0000000000
     18797       162  POPE      C212          -53.7872204177      -22.5175087431        8.4185552530  MEMB      162             0.0000000000
     18798       162  POPE      H12R          -53.9000986209      -23.6205211482        8.3482502976  MEMB      162             0.0000000000
     18799       162  POPE      H12S          -52.9512093955      -22.3876030068        9.1386463467  MEMB      162             0.0000000000
     18800       162  POPE      C213          -53.3379983813      -21.8593460628        7.1024238013  MEMB      162             0.0000000000
     18801       162  POPE      H13R          -53.0415160121      -20.8073331291        7.3016425759  MEMB      162             0.0000000000
     18802       162  POPE      H13S          -54.1395922649      -21.6842730421        6.3533465963  MEMB      162             0.0000000000
     18803       162  POPE      C214          -52.3371995569      -22.6954817745        6.3526141624  MEMB      162             0.0000000000
     18804       162  POPE      H14R          -52.7765452647      -23.7031879808        6.1919163267  MEMB      162             0.0000000000
     18805       162  POPE      H14S          -51.3611736980      -22.7600984014        6.8794151502  MEMB      162             0.0000000000
     18806       162  POPE      C215          -52.0307951590      -22.0357924554        5.0163151906  MEMB      162             0.0000000000
     18807       162  POPE      H15R          -51.0989382720      -22.5833181298        4.7590618990  MEMB      162             0.0000000000
     18808       162  POPE      H15S          -51.9013010622      -20.9325043874        5.0338387392  MEMB      162             0.0000000000
     18809       162  POPE      C216          -52.9963399923      -22.2176857231        3.9116842344  MEMB      162             0.0000000000
     18810       162  POPE      H16R          -53.9251547040      -21.7529169126        4.3061641538  MEMB      162             0.0000000000
     18811       162  POPE      H16S          -53.0851761578      -23.2651947596        3.5523053262  MEMB      162             0.0000000000
     18812       162  POPE      C217          -52.6596015820      -21.4746852473        2.6187557341  MEMB      162             0.0000000000
     18813       162  POPE      H17R          -52.6250749128      -20.3790906494        2.7998676917  MEMB      162             0.0000000000
     18814       162  POPE      H17S          -53.4026464876      -21.6344658300        1.8084011353  MEMB      162             0.0000000000
     18815       162  POPE      C218          -51.3021256731      -21.7751314570        1.9512686167  MEMB      162             0.0000000000
     18816       162  POPE      H18R          -50.5010665363      -21.5791032220        2.6957137880  MEMB      162             0.0000000000
     18817       162  POPE      H18S          -51.1575174416      -21.1195412992        1.0660511851  MEMB      162             0.0000000000
     18818       162  POPE      H18T          -51.3064098729      -22.8243721508        1.5860342023  MEMB      162             0.0000000000
     18819       162  POPE      C33           -53.0815493250      -26.7718950348       12.3507275507  MEMB      162             0.0000000000
     18820       162  POPE      H3X           -53.1233370173      -25.6958170130       12.6239138599  MEMB      162             0.0000000000
     18821       162  POPE      H3Y           -54.0075233070      -27.1165434053       12.8587731036  MEMB      162             0.0000000000
     18822       162  POPE      C34           -53.1198228398      -27.2623794734       10.9141956506  MEMB      162             0.0000000000
     18823       162  POPE      H4X           -54.1286966975      -27.1931457276       10.4540862414  MEMB      162             0.0000000000
     18824       162  POPE      H4Y           -52.9458566529      -28.3558012238       10.8220800514  MEMB      162             0.0000000000
     18825       162  POPE      C35           -52.0167446621      -26.4857146606       10.1621254676  MEMB      162             0.0000000000
     18826       162  POPE      H5X           -50.9913718017      -26.8768559860       10.3351577057  MEMB      162             0.0000000000
     18827       162  POPE      H5Y           -52.2090660117      -25.4503888135       10.5162915868  MEMB      162             0.0000000000
     18828       162  POPE      C36           -52.2369594670      -26.4763902751        8.6316174943  MEMB      162             0.0000000000
     18829       162  POPE      H6X           -53.2569611969      -26.1492693206        8.3368134356  MEMB      162             0.0000000000
     18830       162  POPE      H6Y           -52.1345761188      -27.5034683558        8.2205831433  MEMB      162             0.0000000000
     18831       162  POPE      C37           -51.1656492180      -25.6864950026        7.8389334646  MEMB      162             0.0000000000
     18832       162  POPE      H7X           -50.2054211227      -25.7801835243        8.3898464227  MEMB      162             0.0000000000
     18833       162  POPE      H7Y           -51.3509241253      -24.6064594865        8.0220114687  MEMB      162             0.0000000000
     18834       162  POPE      C38           -50.9526723839      -26.0465809260        6.3859826523  MEMB      162             0.0000000000
     18835       162  POPE      H8X           -50.5219499464      -27.0702580837        6.4157191635  MEMB      162             0.0000000000
     18836       162  POPE      H8Y           -50.1422928661      -25.3973840306        5.9908250590  MEMB      162             0.0000000000
     18837       162  POPE      C39           -52.1225515277      -26.1287699512        5.3375676466  MEMB      162             0.0000000000
     18838       162  POPE      H9X           -52.3026051935      -25.2069167956        4.7441973308  MEMB      162             0.0000000000
     18839       162  POPE      H9Y           -53.0568125409      -26.4443423853        5.8493211911  MEMB      162             0.0000000000
     18840       162  POPE      C310          -51.9093824444      -27.2808252907        4.3729257744  MEMB      162             0.0000000000
     18841       162  POPE      H10X          -52.2871036744      -28.2020412648        4.8658851653  MEMB      162             0.0000000000
     18842       162  POPE      H10Y          -50.8489834310      -27.4259057029        4.0748883246  MEMB      162             0.0000000000
     18843       162  POPE      C311          -52.7160448134      -27.0967881881        3.0396733721  MEMB      162             0.0000000000
     18844       162  POPE      H11X          -52.7045927036      -28.0883437831        2.5386686625  MEMB      162             0.0000000000
     18845       162  POPE      H11Y          -52.2902637348      -26.2889070975        2.4069341317  MEMB      162             0.0000000000
     18846       162  POPE      C312          -54.2016456624      -26.8089798174        3.3180802942  MEMB      162             0.0000000000
     18847       162  POPE      H12X          -54.4520824305      -25.7610581476        3.5891195162  MEMB      162             0.0000000000
     18848       162  POPE      H12Y          -54.4556972516      -27.3786292847        4.2374702464  MEMB      162             0.0000000000
     18849       162  POPE      C313          -55.0714187182      -27.1445649946        2.0098588728  MEMB      162             0.0000000000
     18850       162  POPE      H13X          -56.1403409575      -27.2866612586        2.2773184056  MEMB      162             0.0000000000
     18851       162  POPE      H13Y          -54.8430226134      -28.1770088943        1.6689539688  MEMB      162             0.0000000000
     18852       162  POPE      C314          -54.8276424403      -26.3163958622        0.7598581919  MEMB      162             0.0000000000
     18853       162  POPE      H14X          -55.2838250673      -26.8351824742       -0.1102450985  MEMB      162             0.0000000000
     18854       162  POPE      H14Y          -53.7801247607      -26.2517808323        0.3953686944  MEMB      162             0.0000000000
     18855       162  POPE      C315          -55.3018470154      -24.8436809042        0.9516195938  MEMB      162             0.0000000000
     18856       162  POPE      H15X          -54.8308221856      -24.1240597754        0.2483399608  MEMB      162             0.0000000000
     18857       162  POPE      H15Y          -55.0367930856      -24.3459213284        1.9088571166  MEMB      162             0.0000000000
     18858       162  POPE      C316          -56.8332678824      -24.7221615569        0.8313829875  MEMB      162             0.0000000000
     18859       162  POPE      H16X          -57.1252858325      -23.6771567706        0.5926126790  MEMB      162             0.0000000000
     18860       162  POPE      H16Y          -57.3984175782      -24.9796931176        1.7525803114  MEMB      162             0.0000000000
     18861       162  POPE      H16Z          -57.1592159569      -25.4726152403        0.0797868589  MEMB      162             0.0000000000
     18862       163  POPE      N               4.3395879858       55.4504798556       17.5101510111  MEMB      163             0.0000000000
     18863       163  POPE      HN1             5.1195003922       56.0315451092       17.1417760890  MEMB      163             0.0000000000
     18864       163  POPE      HN2             3.8644509083       54.8538000235       16.8031729574  MEMB      163             0.0000000000
     18865       163  POPE      HN3             3.6930342934       56.1035258436       17.9970794358  MEMB      163             0.0000000000
     18866       163  POPE      C12             4.8902591084       54.4257011961       18.4679548448  MEMB      163             0.0000000000
     18867       163  POPE      H12A            4.9706604528       54.9465939839       19.4459769401  MEMB      163             0.0000000000
     18868       163  POPE      H12B            5.9305804030       54.1646450817       18.1782958454  MEMB      163             0.0000000000
     18869       163  POPE      C11             4.0044932651       53.1318086329       18.6474082686  MEMB      163             0.0000000000
     18870       163  POPE      H11A            3.9422311941       52.5157141439       17.7249809463  MEMB      163             0.0000000000
     18871       163  POPE      H11B            3.0701850530       53.3747595310       19.1972846704  MEMB      163             0.0000000000
     18872       163  POPE      P               6.0295588150       51.6278797143       19.4833200705  MEMB      163             0.0000000000
     18873       163  POPE      O13             5.8507907407       50.2882578440       19.9786416360  MEMB      163             0.0000000000
     18874       163  POPE      O14             7.0535281963       52.3601044733       20.2599261204  MEMB      163             0.0000000000
     18875       163  POPE      O11             6.4600911230       51.6054915164       17.9690513049  MEMB      163             0.0000000000
     18876       163  POPE      O12             4.6275786516       52.3039079368       19.6835467467  MEMB      163             0.0000000000
     18877       163  POPE      C1              6.0215000200       50.5076132822       17.2024906893  MEMB      163             0.0000000000
     18878       163  POPE      HA              4.9606796174       50.2065375263       17.3378952413  MEMB      163             0.0000000000
     18879       163  POPE      HB              6.6447931338       49.6285899043       17.4729432539  MEMB      163             0.0000000000
     18880       163  POPE      C2              6.1991050371       50.8104778022       15.7239481312  MEMB      163             0.0000000000
     18881       163  POPE      HS              7.1853215114       51.2520935594       15.4657357603  MEMB      163             0.0000000000
     18882       163  POPE      O21             5.0676141253       51.6951723201       15.3943537053  MEMB      163             0.0000000000
     18883       163  POPE      C21             5.2281022191       52.3442242514       14.2266948670  MEMB      163             0.0000000000
     18884       163  POPE      O22             6.2492817934       52.3695736284       13.5924421108  MEMB      163             0.0000000000
     18885       163  POPE      C22             3.9001884014       53.0711340202       13.9067897570  MEMB      163             0.0000000000
     18886       163  POPE      H2R             3.9258229001       53.3748563431       12.8384187791  MEMB      163             0.0000000000
     18887       163  POPE      H2S             3.8182815295       53.8309948459       14.7131541436  MEMB      163             0.0000000000
     18888       163  POPE      C3              6.0593663631       49.4214262880       15.0534518651  MEMB      163             0.0000000000
     18889       163  POPE      HX              5.1612646290       48.8280573677       15.3284925428  MEMB      163             0.0000000000
     18890       163  POPE      HY              6.9123869132       48.7640419742       15.3264403829  MEMB      163             0.0000000000
     18891       163  POPE      O31             5.8398942898       49.6431268002       13.6384974881  MEMB      163             0.0000000000
     18892       163  POPE      C31             6.7615351319       49.3552251120       12.7408941520  MEMB      163             0.0000000000
     18893       163  POPE      O32             7.9116389867       49.1001809539       12.9888281365  MEMB      163             0.0000000000
     18894       163  POPE      C32             6.1527268835       49.3641005608       11.3095162818  MEMB      163             0.0000000000
     18895       163  POPE      H2X             6.0351272192       50.4237954299       10.9972053053  MEMB      163             0.0000000000
     18896       163  POPE      H2Y             5.0861935019       49.0827533114       11.4424506084  MEMB      163             0.0000000000
     18897       163  POPE      C23             2.5691258244       52.2194083301       14.0496300561  MEMB      163             0.0000000000
     18898       163  POPE      H3R             1.7188155664       52.9343062518       14.0350026036  MEMB      163             0.0000000000
     18899       163  POPE      H3S             2.5086626002       51.7009792174       15.0303930508  MEMB      163             0.0000000000
     18900       163  POPE      C24             2.3126265451       51.2053928342       12.8875105481  MEMB      163             0.0000000000
     18901       163  POPE      H4R             3.2525706369       50.6705790299       12.6329515632  MEMB      163             0.0000000000
     18902       163  POPE      H4S             1.8908882734       51.7317235351       12.0046552818  MEMB      163             0.0000000000
     18903       163  POPE      C25             1.1860711572       50.1500355919       13.1017665446  MEMB      163             0.0000000000
     18904       163  POPE      H5R             0.2699465782       50.6383938563       13.4974223117  MEMB      163             0.0000000000
     18905       163  POPE      H5S             1.4751006119       49.4371369114       13.9033638956  MEMB      163             0.0000000000
     18906       163  POPE      C26             0.8026210024       49.2861956044       11.8900230505  MEMB      163             0.0000000000
     18907       163  POPE      H6R             0.7345614329       49.9816562512       11.0262959911  MEMB      163             0.0000000000
     18908       163  POPE      H6S            -0.1920036227       48.8391302105       12.1025692903  MEMB      163             0.0000000000
     18909       163  POPE      C27             1.8994400311       48.2039125782       11.6296157408  MEMB      163             0.0000000000
     18910       163  POPE      H7R             1.9884371129       47.6368461232       12.5808443254  MEMB      163             0.0000000000
     18911       163  POPE      H7S             2.8338503786       48.7566398371       11.3936262712  MEMB      163             0.0000000000
     18912       163  POPE      C28             1.5853459066       47.2496936272       10.4538302120  MEMB      163             0.0000000000
     18913       163  POPE      H8R             0.6268271300       46.7749027735       10.7540573066  MEMB      163             0.0000000000
     18914       163  POPE      H8S             2.3751272406       46.4687558149       10.4803295271  MEMB      163             0.0000000000
     18915       163  POPE      C29             1.4176640702       47.9460803211        9.1699146725  MEMB      163             0.0000000000
     18916       163  POPE      H91             0.7105158474       48.7885867567        9.1587727262  MEMB      163             0.0000000000
     18917       163  POPE      C210            2.0278372526       47.5537209654        7.9730585104  MEMB      163             0.0000000000
     18918       163  POPE      H101            1.7739163090       48.1305918048        7.0715354115  MEMB      163             0.0000000000
     18919       163  POPE      C211            2.9459313656       46.3908760525        7.6640346487  MEMB      163             0.0000000000
     18920       163  POPE      H11R            2.4651436332       45.5247622783        8.1670367108  MEMB      163             0.0000000000
     18921       163  POPE      H11S            3.8939666240       46.5336739856        8.2254243634  MEMB      163             0.0000000000
     18922       163  POPE      C212            3.2026131088       45.8926278240        6.2049979115  MEMB      163             0.0000000000
     18923       163  POPE      H12R            2.2955465937       45.3924394767        5.8032977526  MEMB      163             0.0000000000
     18924       163  POPE      H12S            3.9144885255       45.0426703817        6.1333947420  MEMB      163             0.0000000000
     18925       163  POPE      C213            3.7473153979       46.9770069894        5.3204332277  MEMB      163             0.0000000000
     18926       163  POPE      H13R            4.6991662350       47.2629514614        5.8169573068  MEMB      163             0.0000000000
     18927       163  POPE      H13S            3.0739954736       47.8606781618        5.3111325490  MEMB      163             0.0000000000
     18928       163  POPE      C214            3.9754391674       46.6252401169        3.8633289903  MEMB      163             0.0000000000
     18929       163  POPE      H14R            3.0110386660       46.4747035511        3.3326774017  MEMB      163             0.0000000000
     18930       163  POPE      H14S            4.6254291682       45.7287913961        3.7726962611  MEMB      163             0.0000000000
     18931       163  POPE      C215            4.5666373816       47.8949266123        3.1805702764  MEMB      163             0.0000000000
     18932       163  POPE      H15R            4.1677400949       48.8397990269        3.6076757267  MEMB      163             0.0000000000
     18933       163  POPE      H15S            4.2478453018       47.8537052261        2.1170903507  MEMB      163             0.0000000000
     18934       163  POPE      C216            6.0846465279       47.8763857398        3.2842350813  MEMB      163             0.0000000000
     18935       163  POPE      H16R            6.4876896501       46.9195598404        2.8888111322  MEMB      163             0.0000000000
     18936       163  POPE      H16S            6.2114716784       48.0158289806        4.3791295797  MEMB      163             0.0000000000
     18937       163  POPE      C217            6.6262535803       48.9932999289        2.4511131195  MEMB      163             0.0000000000
     18938       163  POPE      H17R            6.1223829097       49.9469105354        2.7176880795  MEMB      163             0.0000000000
     18939       163  POPE      H17S            6.2679540114       48.7422512868        1.4298807201  MEMB      163             0.0000000000
     18940       163  POPE      C218            8.1575298134       49.2015116676        2.4873515043  MEMB      163             0.0000000000
     18941       163  POPE      H18R            8.6934647898       48.2804047437        2.1732536014  MEMB      163             0.0000000000
     18942       163  POPE      H18S            8.4309577506       49.4426652629        3.5368289538  MEMB      163             0.0000000000
     18943       163  POPE      H18T            8.3894423838       49.9941467659        1.7442045124  MEMB      163             0.0000000000
     18944       163  POPE      C33             6.9965665710       48.5282237112       10.2864148428  MEMB      163             0.0000000000
     18945       163  POPE      H3X             7.1110326190       47.4624378288       10.5785089529  MEMB      163             0.0000000000
     18946       163  POPE      H3Y             7.9771425372       49.0483664255       10.3337712341  MEMB      163             0.0000000000
     18947       163  POPE      C34             6.3263436809       48.6727741064        8.8674826772  MEMB      163             0.0000000000
     18948       163  POPE      H4X             5.2728756813       48.3240502256        8.9215021927  MEMB      163             0.0000000000
     18949       163  POPE      H4Y             6.9281160684       48.0277643644        8.1920912837  MEMB      163             0.0000000000
     18950       163  POPE      C35             6.4511683287       50.1395632723        8.2961330560  MEMB      163             0.0000000000
     18951       163  POPE      H5X             7.5192062241       50.4156812188        8.4279464707  MEMB      163             0.0000000000
     18952       163  POPE      H5Y             5.8907317051       50.8792953676        8.9068938172  MEMB      163             0.0000000000
     18953       163  POPE      C36             6.2087746781       50.0507281856        6.7398334641  MEMB      163             0.0000000000
     18954       163  POPE      H6X             5.5894411397       49.1891380525        6.4105783568  MEMB      163             0.0000000000
     18955       163  POPE      H6Y             7.1764010582       49.8195497464        6.2452871379  MEMB      163             0.0000000000
     18956       163  POPE      C37             5.7422734293       51.3398674287        6.1783223340  MEMB      163             0.0000000000
     18957       163  POPE      H7X             5.6144311894       51.2704137538        5.0768894140  MEMB      163             0.0000000000
     18958       163  POPE      H7Y             6.5338701728       52.0913325436        6.3856767778  MEMB      163             0.0000000000
     18959       163  POPE      C38             4.4517125110       51.8551774364        6.7917573692  MEMB      163             0.0000000000
     18960       163  POPE      H8X             4.6669437599       52.1499764392        7.8410865398  MEMB      163             0.0000000000
     18961       163  POPE      H8Y             3.8287236462       50.9368621831        6.8456309463  MEMB      163             0.0000000000
     18962       163  POPE      C39             3.5382675424       52.8446638537        5.9617534929  MEMB      163             0.0000000000
     18963       163  POPE      H9X             3.5819466941       52.5824509188        4.8830242696  MEMB      163             0.0000000000
     18964       163  POPE      H9Y             3.8394725184       53.9109113442        6.0436897180  MEMB      163             0.0000000000
     18965       163  POPE      C310            2.0647861423       52.5896528356        6.2104020897  MEMB      163             0.0000000000
     18966       163  POPE      H10X            1.4703501483       53.4619776705        5.8639688503  MEMB      163             0.0000000000
     18967       163  POPE      H10Y            1.7855585856       52.5194373260        7.2834455923  MEMB      163             0.0000000000
     18968       163  POPE      C311            1.4357005647       51.4032391619        5.4707462217  MEMB      163             0.0000000000
     18969       163  POPE      H11X            0.4201437912       51.3704613174        5.9200699318  MEMB      163             0.0000000000
     18970       163  POPE      H11Y            2.0016377300       50.4820929894        5.7267259626  MEMB      163             0.0000000000
     18971       163  POPE      C312            1.3142340109       51.5620419287        3.9397568378  MEMB      163             0.0000000000
     18972       163  POPE      H12X            2.3081618641       51.9190098931        3.5947896281  MEMB      163             0.0000000000
     18973       163  POPE      H12Y            0.5751036464       52.3589072736        3.7095119286  MEMB      163             0.0000000000
     18974       163  POPE      C313            0.9501336096       50.2183247040        3.3345188271  MEMB      163             0.0000000000
     18975       163  POPE      H13X           -0.0905421404       49.9975183109        3.6547682176  MEMB      163             0.0000000000
     18976       163  POPE      H13Y            1.7121165828       49.4553588170        3.6020740939  MEMB      163             0.0000000000
     18977       163  POPE      C314            0.6937765515       50.1626441049        1.7675818852  MEMB      163             0.0000000000
     18978       163  POPE      H14X           -0.0379458552       50.8722769677        1.3256258176  MEMB      163             0.0000000000
     18979       163  POPE      H14Y            0.2599286914       49.1903122933        1.4502976786  MEMB      163             0.0000000000
     18980       163  POPE      C315            1.9259352576       50.2296982845        0.9420184531  MEMB      163             0.0000000000
     18981       163  POPE      H15X            1.7928950523       49.5099893359        0.1061717944  MEMB      163             0.0000000000
     18982       163  POPE      H15Y            2.7704493659       49.8532205751        1.5579581024  MEMB      163             0.0000000000
     18983       163  POPE      C316            2.3384997876       51.6391551684        0.4328145911  MEMB      163             0.0000000000
     18984       163  POPE      H16X            2.3979753733       52.2176664270        1.3794431976  MEMB      163             0.0000000000
     18985       163  POPE      H16Y            1.5853310344       52.0972585900       -0.2433512796  MEMB      163             0.0000000000
     18986       163  POPE      H16Z            3.3566735730       51.6539526025       -0.0115098800  MEMB      163             0.0000000000
     18987       164  POPE      N              32.5032391416       50.7726548226       20.3671051032  MEMB      164             0.0000000000
     18988       164  POPE      HN1            31.6433543565       50.2657663132       20.6591020617  MEMB      164             0.0000000000
     18989       164  POPE      HN2            32.3956803349       51.7877517355       20.5661262361  MEMB      164             0.0000000000
     18990       164  POPE      HN3            32.6198745808       50.5591774754       19.3559554983  MEMB      164             0.0000000000
     18991       164  POPE      C12            33.8298628813       50.2238550484       20.9621745182  MEMB      164             0.0000000000
     18992       164  POPE      H12A           33.8841309941       49.1168151374       20.8857637618  MEMB      164             0.0000000000
     18993       164  POPE      H12B           33.7425342409       50.4186879485       22.0524658251  MEMB      164             0.0000000000
     18994       164  POPE      C11            35.1737125046       50.8563034884       20.4513329560  MEMB      164             0.0000000000
     18995       164  POPE      H11A           36.0676007380       50.3486477301       20.8727241631  MEMB      164             0.0000000000
     18996       164  POPE      H11B           35.1384870656       51.9195834855       20.7715136898  MEMB      164             0.0000000000
     18997       164  POPE      P              34.9330169685       51.9017500705       18.0015106680  MEMB      164             0.0000000000
     18998       164  POPE      O13            34.2458505551       53.0155683397       18.6749379946  MEMB      164             0.0000000000
     18999       164  POPE      O14            34.2336938227       51.2799336710       16.8635943700  MEMB      164             0.0000000000
     19000       164  POPE      O11            36.4449973106       52.3089345582       17.6140877804  MEMB      164             0.0000000000
     19001       164  POPE      O12            35.2641204476       50.7896064039       19.0652565724  MEMB      164             0.0000000000
     19002       164  POPE      C1             37.3401711240       51.3581979996       17.0863051566  MEMB      164             0.0000000000
     19003       164  POPE      HA             36.8048037253       50.6121004667       16.4609725441  MEMB      164             0.0000000000
     19004       164  POPE      HB             37.8682260950       50.7878806407       17.8801674899  MEMB      164             0.0000000000
     19005       164  POPE      C2             38.3008202616       52.0057619762       16.1234704677  MEMB      164             0.0000000000
     19006       164  POPE      HS             38.6322662420       52.9451380794       16.6154432015  MEMB      164             0.0000000000
     19007       164  POPE      O21            37.7388557525       52.2996562522       14.8358340497  MEMB      164             0.0000000000
     19008       164  POPE      C21            37.0168958730       53.4438442140       14.7377597904  MEMB      164             0.0000000000
     19009       164  POPE      O22            36.8845176149       54.2326781483       15.6111996039  MEMB      164             0.0000000000
     19010       164  POPE      C22            36.3289791308       53.4943170801       13.4262978546  MEMB      164             0.0000000000
     19011       164  POPE      H2R            37.0391998373       53.4549875149       12.5728572694  MEMB      164             0.0000000000
     19012       164  POPE      H2S            35.6876180825       54.3927415266       13.3005580385  MEMB      164             0.0000000000
     19013       164  POPE      C3             39.5214447614       51.0846692166       15.9690145475  MEMB      164             0.0000000000
     19014       164  POPE      HX             39.1254618597       50.0571354781       15.8217286585  MEMB      164             0.0000000000
     19015       164  POPE      HY             40.1457724217       51.1127059159       16.8875728895  MEMB      164             0.0000000000
     19016       164  POPE      O31            40.3087699818       51.5789425262       14.8668062312  MEMB      164             0.0000000000
     19017       164  POPE      C31            39.9446355191       51.1007589234       13.6428627193  MEMB      164             0.0000000000
     19018       164  POPE      O32            38.9578168788       50.4295034022       13.3617856574  MEMB      164             0.0000000000
     19019       164  POPE      C32            40.7845671507       51.7207341786       12.5906252346  MEMB      164             0.0000000000
     19020       164  POPE      H2X            41.8028604944       51.6045460978       13.0194607204  MEMB      164             0.0000000000
     19021       164  POPE      H2Y            40.6275903068       52.8149662350       12.4795589969  MEMB      164             0.0000000000
     19022       164  POPE      C23            35.3935096467       52.2827349937       13.3260465883  MEMB      164             0.0000000000
     19023       164  POPE      H3R            34.7752569470       52.2454983527       14.2483792185  MEMB      164             0.0000000000
     19024       164  POPE      H3S            35.9879060799       51.3447618241       13.2911115158  MEMB      164             0.0000000000
     19025       164  POPE      C24            34.4287120277       52.4148071127       12.2412325485  MEMB      164             0.0000000000
     19026       164  POPE      H4R            34.0073477857       53.4332475807       12.3810616952  MEMB      164             0.0000000000
     19027       164  POPE      H4S            33.6545206544       51.6208495071       12.3089097593  MEMB      164             0.0000000000
     19028       164  POPE      C25            35.0163498883       52.2757014884       10.7758723859  MEMB      164             0.0000000000
     19029       164  POPE      H5R            35.7024548161       53.1445091419       10.6823084490  MEMB      164             0.0000000000
     19030       164  POPE      H5S            34.1915110951       52.3527463808       10.0355848235  MEMB      164             0.0000000000
     19031       164  POPE      C26            35.7079845661       50.9185872531       10.4856427677  MEMB      164             0.0000000000
     19032       164  POPE      H6R            35.0047522069       50.0925146181       10.7252030710  MEMB      164             0.0000000000
     19033       164  POPE      H6S            36.6098053490       50.7775843571       11.1190132213  MEMB      164             0.0000000000
     19034       164  POPE      C27            36.2771033895       50.6993229845        9.1097098827  MEMB      164             0.0000000000
     19035       164  POPE      H7R            36.6440204993       49.6519662012        9.0573962184  MEMB      164             0.0000000000
     19036       164  POPE      H7S            37.1731774409       51.3314683237        8.9314840701  MEMB      164             0.0000000000
     19037       164  POPE      C28            35.2936745394       50.7910116983        7.8910536946  MEMB      164             0.0000000000
     19038       164  POPE      H8R            35.9203287869       50.7747773888        6.9737949618  MEMB      164             0.0000000000
     19039       164  POPE      H8S            34.8754838707       51.8137588687        7.7751835710  MEMB      164             0.0000000000
     19040       164  POPE      C29            34.0165463297       49.9404838748        7.8624297058  MEMB      164             0.0000000000
     19041       164  POPE      H91            33.2746164231       50.2705596914        8.6044480583  MEMB      164             0.0000000000
     19042       164  POPE      C210           33.8122232994       48.7891712324        7.2032436886  MEMB      164             0.0000000000
     19043       164  POPE      H101           32.8488797653       48.2643684383        7.2841802644  MEMB      164             0.0000000000
     19044       164  POPE      C211           34.9130731474       48.2010769513        6.3540844567  MEMB      164             0.0000000000
     19045       164  POPE      H11R           35.0882586288       47.1119150112        6.4858319681  MEMB      164             0.0000000000
     19046       164  POPE      H11S           35.9696071072       48.4675097845        6.5710418202  MEMB      164             0.0000000000
     19047       164  POPE      C212           34.7124357008       48.5656995030        4.8769762344  MEMB      164             0.0000000000
     19048       164  POPE      H12R           34.6110612893       49.6659645489        4.7609544106  MEMB      164             0.0000000000
     19049       164  POPE      H12S           33.7895762775       48.0238727029        4.5785209123  MEMB      164             0.0000000000
     19050       164  POPE      C213           35.8529724128       48.0846656029        4.0130423300  MEMB      164             0.0000000000
     19051       164  POPE      H13R           35.9881706093       47.0694585630        4.4436201832  MEMB      164             0.0000000000
     19052       164  POPE      H13S           36.7500343946       48.7356134027        4.0896416987  MEMB      164             0.0000000000
     19053       164  POPE      C214           35.5227154524       48.0064728124        2.4950749036  MEMB      164             0.0000000000
     19054       164  POPE      H14R           35.3748754085       49.0535676202        2.1544044707  MEMB      164             0.0000000000
     19055       164  POPE      H14S           34.5551250832       47.4706745261        2.3901446239  MEMB      164             0.0000000000
     19056       164  POPE      C215           36.4652598071       47.3026722860        1.5483746923  MEMB      164             0.0000000000
     19057       164  POPE      H15R           36.1936560127       47.4693097019        0.4840519678  MEMB      164             0.0000000000
     19058       164  POPE      H15S           36.3416646246       46.2090323216        1.7000212640  MEMB      164             0.0000000000
     19059       164  POPE      C216           37.9639109261       47.5159734836        1.8410220493  MEMB      164             0.0000000000
     19060       164  POPE      H16R           38.1087376552       47.0518632199        2.8399947813  MEMB      164             0.0000000000
     19061       164  POPE      H16S           38.1049652185       48.6166364391        1.8954819572  MEMB      164             0.0000000000
     19062       164  POPE      C217           38.8288303880       46.8304325394        0.7770674157  MEMB      164             0.0000000000
     19063       164  POPE      H17R           38.4042688240       46.6938718797       -0.2404877702  MEMB      164             0.0000000000
     19064       164  POPE      H17S           38.9061338100       45.7560009543        1.0489899388  MEMB      164             0.0000000000
     19065       164  POPE      C218           40.2837026898       47.2342098950        0.7056386374  MEMB      164             0.0000000000
     19066       164  POPE      H18R           40.2997963432       48.2609057250        0.2814244072  MEMB      164             0.0000000000
     19067       164  POPE      H18S           40.8854516803       46.5729380678        0.0461402259  MEMB      164             0.0000000000
     19068       164  POPE      H18T           40.7901642711       47.2892406601        1.6929530286  MEMB      164             0.0000000000
     19069       164  POPE      C33            40.7700714411       51.1699366641       11.1626451916  MEMB      164             0.0000000000
     19070       164  POPE      H3X            40.5812505880       50.0800554900       11.2666961372  MEMB      164             0.0000000000
     19071       164  POPE      H3Y            41.7962129740       51.2075475867       10.7384513633  MEMB      164             0.0000000000
     19072       164  POPE      C34            39.6880032526       51.6762883556       10.2322406280  MEMB      164             0.0000000000
     19073       164  POPE      H4X            38.7766573342       51.7860475981       10.8581181564  MEMB      164             0.0000000000
     19074       164  POPE      H4Y            39.4749675517       50.9039025798        9.4625931385  MEMB      164             0.0000000000
     19075       164  POPE      C35            39.9568228698       53.0239347109        9.5986138536  MEMB      164             0.0000000000
     19076       164  POPE      H5X            40.9890110892       52.8937780675        9.2087835458  MEMB      164             0.0000000000
     19077       164  POPE      H5Y            39.8955556913       53.8461116832       10.3433231202  MEMB      164             0.0000000000
     19078       164  POPE      C36            39.0807182828       53.4206897879        8.3967188598  MEMB      164             0.0000000000
     19079       164  POPE      H6X            39.4438105703       54.3526435526        7.9130377261  MEMB      164             0.0000000000
     19080       164  POPE      H6Y            38.0205343923       53.6139554604        8.6668667518  MEMB      164             0.0000000000
     19081       164  POPE      C37            39.0653851061       52.4664147362        7.2527007072  MEMB      164             0.0000000000
     19082       164  POPE      H7X            38.9200133966       51.3962820895        7.5134766274  MEMB      164             0.0000000000
     19083       164  POPE      H7Y            40.1045231095       52.5251786254        6.8640354814  MEMB      164             0.0000000000
     19084       164  POPE      C38            38.1446378918       52.8797209544        6.0836060565  MEMB      164             0.0000000000
     19085       164  POPE      H8X            38.2776056775       53.8712194921        5.6003142140  MEMB      164             0.0000000000
     19086       164  POPE      H8Y            37.1048316996       52.9188980835        6.4729505977  MEMB      164             0.0000000000
     19087       164  POPE      C39            38.1595633706       51.7625359760        5.0282200569  MEMB      164             0.0000000000
     19088       164  POPE      H9X            37.1474801233       51.8069482991        4.5721101017  MEMB      164             0.0000000000
     19089       164  POPE      H9Y            38.3205693053       50.7536712983        5.4647864882  MEMB      164             0.0000000000
     19090       164  POPE      C310           39.2778596264       51.8928638679        3.9740168631  MEMB      164             0.0000000000
     19091       164  POPE      H10X           40.2183123397       51.9258187899        4.5645964054  MEMB      164             0.0000000000
     19092       164  POPE      H10Y           39.0289120469       52.8494815344        3.4668402971  MEMB      164             0.0000000000
     19093       164  POPE      C311           39.5097664085       50.6810795784        2.9689147963  MEMB      164             0.0000000000
     19094       164  POPE      H11X           38.8289810437       49.8549548260        3.2661855749  MEMB      164             0.0000000000
     19095       164  POPE      H11Y           40.5633162315       50.3682300692        3.1316387736  MEMB      164             0.0000000000
     19096       164  POPE      C312           39.3889859346       51.0163590849        1.4982279896  MEMB      164             0.0000000000
     19097       164  POPE      H12X           38.2940679648       51.2009070329        1.5358808595  MEMB      164             0.0000000000
     19098       164  POPE      H12Y           39.5038754670       50.1650773716        0.7936432657  MEMB      164             0.0000000000
     19099       164  POPE      C313           40.1273412279       52.2229336234        0.8556955471  MEMB      164             0.0000000000
     19100       164  POPE      H13X           40.0867015852       53.1543577395        1.4599438916  MEMB      164             0.0000000000
     19101       164  POPE      H13Y           39.5841553233       52.3926915267       -0.0984807788  MEMB      164             0.0000000000
     19102       164  POPE      C314           41.5994961925       51.9620322361        0.3999436185  MEMB      164             0.0000000000
     19103       164  POPE      H14X           42.1406669487       51.6012144545        1.3006459866  MEMB      164             0.0000000000
     19104       164  POPE      H14Y           42.0308514573       52.8997637515       -0.0110466103  MEMB      164             0.0000000000
     19105       164  POPE      C315           41.7239177907       50.8647180291       -0.7412256144  MEMB      164             0.0000000000
     19106       164  POPE      H15X           41.3912565234       51.3319172335       -1.6927424952  MEMB      164             0.0000000000
     19107       164  POPE      H15Y           41.0851833692       49.9653787991       -0.6088299051  MEMB      164             0.0000000000
     19108       164  POPE      C316           43.1656844884       50.3183335780       -0.9058465460  MEMB      164             0.0000000000
     19109       164  POPE      H16X           43.4746655086       49.9160177307        0.0825838917  MEMB      164             0.0000000000
     19110       164  POPE      H16Y           43.9127169004       51.0847662650       -1.2039128534  MEMB      164             0.0000000000
     19111       164  POPE      H16Z           43.2128784193       49.4873093836       -1.6417085219  MEMB      164             0.0000000000
     19112       165  POPC      N              42.2042741749       49.5442786305       18.5137036009  MEMB      165             0.0000000000
     19113       165  POPC      C12            41.4376338717       48.4252319331       17.7351103162  MEMB      165             0.0000000000
     19114       165  POPC      H12A           42.1886575483       47.6652543062       17.5776384883  MEMB      165             0.0000000000
     19115       165  POPC      H12B           41.1290497576       48.9339923724       16.8338120077  MEMB      165             0.0000000000
     19116       165  POPC      C13            42.9827976262       49.1107657209       19.7039690657  MEMB      165             0.0000000000
     19117       165  POPC      H13A           43.4267406571       50.0420449825       20.0233956745  MEMB      165             0.0000000000
     19118       165  POPC      H13B           42.2646216414       48.7701540567       20.4351371871  MEMB      165             0.0000000000
     19119       165  POPC      H13C           43.7375141572       48.3690042067       19.4881155295  MEMB      165             0.0000000000
     19120       165  POPC      C14            43.1460966489       50.0438328411       17.4186137394  MEMB      165             0.0000000000
     19121       165  POPC      H14A           43.8924196283       50.7226595815       17.8040956064  MEMB      165             0.0000000000
     19122       165  POPC      H14B           43.5842869777       49.1556510078       16.9878908222  MEMB      165             0.0000000000
     19123       165  POPC      H14C           42.5548780211       50.4287817702       16.6008884560  MEMB      165             0.0000000000
     19124       165  POPC      C15            41.2777045081       50.7082304119       18.8346098037  MEMB      165             0.0000000000
     19125       165  POPC      H15A           40.8472549752       51.1347233134       17.9406203524  MEMB      165             0.0000000000
     19126       165  POPC      H15B           41.9228931419       51.4869851877       19.2136515041  MEMB      165             0.0000000000
     19127       165  POPC      H15C           40.5993530515       50.4188112793       19.6235812256  MEMB      165             0.0000000000
     19128       165  POPC      C11            40.2808768489       47.8104742236       18.4912135151  MEMB      165             0.0000000000
     19129       165  POPC      H11A           39.7771986320       47.1153656026       17.7859098895  MEMB      165             0.0000000000
     19130       165  POPC      H11B           39.4709118474       48.5551292579       18.6453774233  MEMB      165             0.0000000000
     19131       165  POPC      P              41.2270403999       45.7160346336       19.6934045889  MEMB      165             0.0000000000
     19132       165  POPC      O13            40.3130571874       44.8608421169       18.9272738349  MEMB      165             0.0000000000
     19133       165  POPC      O14            41.5235470541       45.2508202889       21.1187988125  MEMB      165             0.0000000000
     19134       165  POPC      O12            40.6560422593       47.2054980082       19.7078017681  MEMB      165             0.0000000000
     19135       165  POPC      O11            42.5930703424       45.9411458406       18.8555009447  MEMB      165             0.0000000000
     19136       165  POPC      C1             43.7919576761       45.3310897486       19.2576668076  MEMB      165             0.0000000000
     19137       165  POPC      HA             43.5838085936       44.4017936194       19.8298589524  MEMB      165             0.0000000000
     19138       165  POPC      HB             44.3605935270       46.0007797053       19.9377327406  MEMB      165             0.0000000000
     19139       165  POPC      C2             44.5583469355       44.9519921354       18.0285192156  MEMB      165             0.0000000000
     19140       165  POPC      HS             45.3405631741       44.2408166497       18.3701158130  MEMB      165             0.0000000000
     19141       165  POPC      O21            45.0211035562       46.1429897929       17.4461347798  MEMB      165             0.0000000000
     19142       165  POPC      C21            45.8093255587       46.0634854956       16.3312897811  MEMB      165             0.0000000000
     19143       165  POPC      O22            46.3689450312       45.1157185080       15.9436148862  MEMB      165             0.0000000000
     19144       165  POPC      C22            45.9963864574       47.4543993612       15.6811407997  MEMB      165             0.0000000000
     19145       165  POPC      H2R            46.8807544387       47.4157560131       15.0097834995  MEMB      165             0.0000000000
     19146       165  POPC      H2S            46.2305238718       48.1924820527       16.4778430439  MEMB      165             0.0000000000
     19147       165  POPC      C3             43.7834039202       44.0619247890       16.9963303438  MEMB      165             0.0000000000
     19148       165  POPC      HX             43.2180433338       43.2961294007       17.5692577639  MEMB      165             0.0000000000
     19149       165  POPC      HY             44.4931184633       43.5916719378       16.2825459374  MEMB      165             0.0000000000
     19150       165  POPC      O31            42.7034863705       44.8155820127       16.2692238237  MEMB      165             0.0000000000
     19151       165  POPC      C31            41.7656732288       44.0616525248       15.6676847519  MEMB      165             0.0000000000
     19152       165  POPC      O32            41.7667450416       42.8329706398       15.6393993379  MEMB      165             0.0000000000
     19153       165  POPC      C32            40.7158508028       44.9474362090       15.1190857061  MEMB      165             0.0000000000
     19154       165  POPC      H2X            39.9598433629       45.1876122882       15.8969603854  MEMB      165             0.0000000000
     19155       165  POPC      H2Y            40.1576006624       44.5292130309       14.2543502649  MEMB      165             0.0000000000
     19156       165  POPC      C23            44.7169389014       47.7973151899       14.9557327703  MEMB      165             0.0000000000
     19157       165  POPC      H3R            43.8126274315       47.7493923368       15.5993516512  MEMB      165             0.0000000000
     19158       165  POPC      H3S            44.5311968522       47.0915985139       14.1180065823  MEMB      165             0.0000000000
     19159       165  POPC      C24            44.9615497964       49.2009876871       14.2881159703  MEMB      165             0.0000000000
     19160       165  POPC      H4R            45.7164199086       49.0413789912       13.4887306890  MEMB      165             0.0000000000
     19161       165  POPC      H4S            45.4616129962       49.8213233170       15.0623523249  MEMB      165             0.0000000000
     19162       165  POPC      C25            43.7398866459       49.8603992709       13.7297174171  MEMB      165             0.0000000000
     19163       165  POPC      H5R            43.0332026188       50.2996831391       14.4658886933  MEMB      165             0.0000000000
     19164       165  POPC      H5S            43.0681171677       49.1606546397       13.1880494416  MEMB      165             0.0000000000
     19165       165  POPC      C26            44.0998259372       50.8859293485       12.6513458037  MEMB      165             0.0000000000
     19166       165  POPC      H6R            44.8261047933       50.4726960957       11.9191720181  MEMB      165             0.0000000000
     19167       165  POPC      H6S            44.5448565631       51.7880913274       13.1229101912  MEMB      165             0.0000000000
     19168       165  POPC      C27            42.8621085084       51.4108561410       11.8160569996  MEMB      165             0.0000000000
     19169       165  POPC      H7R            42.2125057918       51.9776155063       12.5168572130  MEMB      165             0.0000000000
     19170       165  POPC      H7S            42.4721731968       50.4275782352       11.4762984001  MEMB      165             0.0000000000
     19171       165  POPC      C28            43.0963696772       52.1047676255       10.5668449955  MEMB      165             0.0000000000
     19172       165  POPC      H8R            43.7572447312       51.4652661307        9.9434655048  MEMB      165             0.0000000000
     19173       165  POPC      H8S            43.6781084366       53.0237029294       10.7936908616  MEMB      165             0.0000000000
     19174       165  POPC      C29            41.8658621273       52.3122350370        9.8159909750  MEMB      165             0.0000000000
     19175       165  POPC      H91            41.5237053726       53.3468560750        9.9659500825  MEMB      165             0.0000000000
     19176       165  POPC      C210           41.2538489655       51.4871913939        9.0045111668  MEMB      165             0.0000000000
     19177       165  POPC      H101           40.2944588782       51.7887236919        8.5588114484  MEMB      165             0.0000000000
     19178       165  POPC      C211           41.7555018877       50.0543766670        8.6002298914  MEMB      165             0.0000000000
     19179       165  POPC      H11R           41.1238884725       49.2536807821        9.0409928422  MEMB      165             0.0000000000
     19180       165  POPC      H11S           42.7825956598       49.7993412539        8.9383959130  MEMB      165             0.0000000000
     19181       165  POPC      C212           41.7808095922       49.7490288676        7.0775700425  MEMB      165             0.0000000000
     19182       165  POPC      H12R           41.9363570668       48.6734890970        6.8466146350  MEMB      165             0.0000000000
     19183       165  POPC      H12S           42.5833537421       50.3982212480        6.6667261870  MEMB      165             0.0000000000
     19184       165  POPC      C213           40.4512000989       50.0813260049        6.3927428527  MEMB      165             0.0000000000
     19185       165  POPC      H13R           40.1259159701       51.1404952540        6.3110629184  MEMB      165             0.0000000000
     19186       165  POPC      H13S           39.7298910394       49.5443495384        7.0451919151  MEMB      165             0.0000000000
     19187       165  POPC      C214           40.3656827610       49.5068943824        4.9502178254  MEMB      165             0.0000000000
     19188       165  POPC      H14R           39.2614924790       49.4213146380        4.8621217328  MEMB      165             0.0000000000
     19189       165  POPC      H14S           40.6429576035       48.4324465658        4.8954289632  MEMB      165             0.0000000000
     19190       165  POPC      C215           41.0731594382       50.2784031139        3.8816391479  MEMB      165             0.0000000000
     19191       165  POPC      H15R           42.1703489041       50.1194699627        3.9540055842  MEMB      165             0.0000000000
     19192       165  POPC      H15S           40.7644472763       51.3405946415        3.9854021241  MEMB      165             0.0000000000
     19193       165  POPC      C216           40.6695737873       49.8800557238        2.4562870343  MEMB      165             0.0000000000
     19194       165  POPC      H16R           39.6062604368       50.1860408401        2.3559953703  MEMB      165             0.0000000000
     19195       165  POPC      H16S           40.8842646699       48.8360834593        2.1426775230  MEMB      165             0.0000000000
     19196       165  POPC      C217           41.3887447857       50.7225038583        1.4879677133  MEMB      165             0.0000000000
     19197       165  POPC      H17R           42.4147462465       50.8490189805        1.8949514587  MEMB      165             0.0000000000
     19198       165  POPC      H17S           40.9110363768       51.7021917582        1.2727305811  MEMB      165             0.0000000000
     19199       165  POPC      C218           41.5561450370       49.9864903114        0.2219907499  MEMB      165             0.0000000000
     19200       165  POPC      H18R           42.4055591508       50.2377081031       -0.4486107423  MEMB      165             0.0000000000
     19201       165  POPC      H18S           40.6928122177       50.1083735018       -0.4665749487  MEMB      165             0.0000000000
     19202       165  POPC      H18T           41.7174515968       48.8959210549        0.3596833034  MEMB      165             0.0000000000
     19203       165  POPC      C33            41.2991523041       46.2663337767       14.5672483516  MEMB      165             0.0000000000
     19204       165  POPC      H3X            42.1951116991       45.9527804769       13.9899595052  MEMB      165             0.0000000000
     19205       165  POPC      H3Y            41.6193342982       46.8124981874       15.4802152592  MEMB      165             0.0000000000
     19206       165  POPC      C34            40.4284650464       47.2464945457       13.6598734939  MEMB      165             0.0000000000
     19207       165  POPC      H4X            41.1446458661       48.0748065360       13.4719769680  MEMB      165             0.0000000000
     19208       165  POPC      H4Y            39.5242944075       47.3772838524       14.2920842352  MEMB      165             0.0000000000
     19209       165  POPC      C35            39.9612059448       46.7003541188       12.3080137179  MEMB      165             0.0000000000
     19210       165  POPC      H5X            39.5621828451       47.5695531727       11.7426871582  MEMB      165             0.0000000000
     19211       165  POPC      H5Y            39.2110247278       45.8976901618       12.4731790552  MEMB      165             0.0000000000
     19212       165  POPC      C36            41.0965112848       46.0661418127       11.4342220686  MEMB      165             0.0000000000
     19213       165  POPC      H6X            40.6533962457       45.4228319210       10.6442074324  MEMB      165             0.0000000000
     19214       165  POPC      H6Y            41.7072065472       45.3450781490       12.0185501728  MEMB      165             0.0000000000
     19215       165  POPC      C37            41.9917969744       47.1459426285       10.8750881895  MEMB      165             0.0000000000
     19216       165  POPC      H7X            42.4141030495       47.9426504171       11.5241145100  MEMB      165             0.0000000000
     19217       165  POPC      H7Y            41.3168646468       47.6992070850       10.1875667609  MEMB      165             0.0000000000
     19218       165  POPC      C38            43.2693927522       46.7400039477       10.0587711253  MEMB      165             0.0000000000
     19219       165  POPC      H8X            43.8331718166       46.0948717352       10.7660752058  MEMB      165             0.0000000000
     19220       165  POPC      H8Y            43.8750442161       47.6695923732       10.0006981054  MEMB      165             0.0000000000
     19221       165  POPC      C39            42.9968182969       46.0892434849        8.6497184751  MEMB      165             0.0000000000
     19222       165  POPC      H9X            42.2333213854       46.6579392489        8.0770240604  MEMB      165             0.0000000000
     19223       165  POPC      H9Y            42.7062809433       45.0386472090        8.8645591655  MEMB      165             0.0000000000
     19224       165  POPC      C310           44.2982274089       46.0688268927        7.8792537458  MEMB      165             0.0000000000
     19225       165  POPC      H10X           45.0576063394       45.5106214239        8.4675324997  MEMB      165             0.0000000000
     19226       165  POPC      H10Y           44.7493609172       47.0812575407        7.8032026737  MEMB      165             0.0000000000
     19227       165  POPC      C311           44.0836998958       45.3856542960        6.5296152747  MEMB      165             0.0000000000
     19228       165  POPC      H11X           43.4110230234       44.5058131474        6.6174015935  MEMB      165             0.0000000000
     19229       165  POPC      H11Y           45.0286352962       44.8872613998        6.2246192862  MEMB      165             0.0000000000
     19230       165  POPC      C312           43.8662163880       46.2537737532        5.2568020086  MEMB      165             0.0000000000
     19231       165  POPC      H12X           44.8281450758       46.8025254601        5.1680009125  MEMB      165             0.0000000000
     19232       165  POPC      H12Y           42.9921480147       46.9395275064        5.2650087031  MEMB      165             0.0000000000
     19233       165  POPC      C313           43.5983075501       45.3439438261        3.9989680117  MEMB      165             0.0000000000
     19234       165  POPC      H13X           42.5450894442       44.9967427163        3.9318546551  MEMB      165             0.0000000000
     19235       165  POPC      H13Y           44.2554970785       44.4484070333        3.9780712971  MEMB      165             0.0000000000
     19236       165  POPC      C314           44.0402698881       46.0563698059        2.6541994682  MEMB      165             0.0000000000
     19237       165  POPC      H14X           45.0309231839       46.5350859073        2.8083354686  MEMB      165             0.0000000000
     19238       165  POPC      H14Y           43.3554859884       46.8679003679        2.3273819207  MEMB      165             0.0000000000
     19239       165  POPC      C315           44.1915345165       45.0815737053        1.4714003008  MEMB      165             0.0000000000
     19240       165  POPC      H15X           43.2718765393       44.4908481984        1.2724194353  MEMB      165             0.0000000000
     19241       165  POPC      H15Y           45.0120333240       44.3515459865        1.6392164940  MEMB      165             0.0000000000
     19242       165  POPC      C316           44.5586415416       45.7604306056        0.1795768544  MEMB      165             0.0000000000
     19243       165  POPC      H16X           43.6606651764       46.0541995698       -0.4049391138  MEMB      165             0.0000000000
     19244       165  POPC      H16Y           45.2336344681       45.1209113920       -0.4284679966  MEMB      165             0.0000000000
     19245       165  POPC      H16Z           45.0845996064       46.6737403211        0.5310812619  MEMB      165             0.0000000000
     19246       166  POPC      N             -45.7793810414      -34.1450122192       21.3804910384  MEMB      166             0.0000000000
     19247       166  POPC      C12           -45.5745196525      -35.1164609940       20.3145638620  MEMB      166             0.0000000000
     19248       166  POPC      H12A          -46.4914586914      -35.6759281325       20.2022281372  MEMB      166             0.0000000000
     19249       166  POPC      H12B          -44.8897327869      -35.8715516778       20.6713622571  MEMB      166             0.0000000000
     19250       166  POPC      C13           -44.6059652928      -33.1878158526       21.5770746811  MEMB      166             0.0000000000
     19251       166  POPC      H13A          -44.3863363248      -32.7500146941       20.6145295471  MEMB      166             0.0000000000
     19252       166  POPC      H13B          -44.8179404898      -32.3719715261       22.2522520251  MEMB      166             0.0000000000
     19253       166  POPC      H13C          -43.7577722827      -33.7114160441       21.9927804394  MEMB      166             0.0000000000
     19254       166  POPC      C14           -46.9963430777      -33.2664779491       21.0390876625  MEMB      166             0.0000000000
     19255       166  POPC      H14A          -46.8859130039      -33.1001677878       19.9776987675  MEMB      166             0.0000000000
     19256       166  POPC      H14B          -47.9003440116      -33.8039678792       21.2846218225  MEMB      166             0.0000000000
     19257       166  POPC      H14C          -46.9044775084      -32.3364198893       21.5803386118  MEMB      166             0.0000000000
     19258       166  POPC      C15           -46.1252092007      -34.9659837241       22.6106364875  MEMB      166             0.0000000000
     19259       166  POPC      H15A          -45.1277240038      -35.2936262021       22.8637642726  MEMB      166             0.0000000000
     19260       166  POPC      H15B          -46.6818657988      -35.8497709067       22.3359479009  MEMB      166             0.0000000000
     19261       166  POPC      H15C          -46.6407963000      -34.3709928945       23.3499308056  MEMB      166             0.0000000000
     19262       166  POPC      C11           -45.1026802731      -34.7440857323       18.8926896976  MEMB      166             0.0000000000
     19263       166  POPC      H11A          -44.7325427512      -35.6356471158       18.3427464489  MEMB      166             0.0000000000
     19264       166  POPC      H11B          -44.1593801630      -34.1740081223       19.0323945432  MEMB      166             0.0000000000
     19265       166  POPC      P             -46.0214322701      -33.6921034614       16.5722429862  MEMB      166             0.0000000000
     19266       166  POPC      O13           -47.2924614610      -33.1678086361       16.0052857355  MEMB      166             0.0000000000
     19267       166  POPC      O14           -45.6335249763      -34.9644236141       15.9173408008  MEMB      166             0.0000000000
     19268       166  POPC      O12           -46.0886414964      -34.0701331130       18.1109724172  MEMB      166             0.0000000000
     19269       166  POPC      O11           -44.7769546552      -32.7891832022       16.5796146263  MEMB      166             0.0000000000
     19270       166  POPC      C1            -44.7662325571      -31.4237698028       17.1838390993  MEMB      166             0.0000000000
     19271       166  POPC      HA            -44.0281760622      -31.4496678427       18.0138529464  MEMB      166             0.0000000000
     19272       166  POPC      HB            -45.8039654739      -31.2922129254       17.5581708308  MEMB      166             0.0000000000
     19273       166  POPC      C2            -44.3145723812      -30.3154486286       16.1400320982  MEMB      166             0.0000000000
     19274       166  POPC      HS            -44.4561874775      -29.2961456867       16.5587057771  MEMB      166             0.0000000000
     19275       166  POPC      O21           -44.9515300280      -30.5581466484       14.8962909527  MEMB      166             0.0000000000
     19276       166  POPC      C21           -45.9873269862      -29.7759922084       14.6325519394  MEMB      166             0.0000000000
     19277       166  POPC      O22           -46.3007655054      -28.7604168722       15.2404134706  MEMB      166             0.0000000000
     19278       166  POPC      C22           -46.8206116687      -30.4112197028       13.4266777392  MEMB      166             0.0000000000
     19279       166  POPC      H2R           -47.8606670869      -30.0263940286       13.3594833031  MEMB      166             0.0000000000
     19280       166  POPC      H2S           -46.8350205872      -31.5213856537       13.3861167780  MEMB      166             0.0000000000
     19281       166  POPC      C3            -42.7526798655      -30.4421915866       15.9218256336  MEMB      166             0.0000000000
     19282       166  POPC      HX            -42.4243912693      -30.5302787373       16.9795534754  MEMB      166             0.0000000000
     19283       166  POPC      HY            -42.4148168924      -29.4899326438       15.4599030279  MEMB      166             0.0000000000
     19284       166  POPC      O31           -42.3089050466      -31.5971183864       15.1932437285  MEMB      166             0.0000000000
     19285       166  POPC      C31           -42.5037290030      -31.5165023208       13.8504403667  MEMB      166             0.0000000000
     19286       166  POPC      O32           -42.6877345427      -30.4495589938       13.2465551122  MEMB      166             0.0000000000
     19287       166  POPC      C32           -42.5212856874      -32.9162163946       13.2134023633  MEMB      166             0.0000000000
     19288       166  POPC      H2X           -42.3792604421      -33.6682475558       14.0187583863  MEMB      166             0.0000000000
     19289       166  POPC      H2Y           -41.7629171013      -33.0186919711       12.4079850371  MEMB      166             0.0000000000
     19290       166  POPC      C23           -46.0999764038      -29.8972645529       12.1896985039  MEMB      166             0.0000000000
     19291       166  POPC      H3R           -45.2775137401      -30.6148177034       11.9823493697  MEMB      166             0.0000000000
     19292       166  POPC      H3S           -45.8082064230      -28.8273100576       12.2559415566  MEMB      166             0.0000000000
     19293       166  POPC      C24           -46.9463538367      -30.0454562964       10.9651646177  MEMB      166             0.0000000000
     19294       166  POPC      H4R           -47.7692314700      -29.3223195745       11.1502764026  MEMB      166             0.0000000000
     19295       166  POPC      H4S           -47.3315549519      -31.0807674407       10.8465372497  MEMB      166             0.0000000000
     19296       166  POPC      C25           -46.2533027118      -29.7485063056        9.6399391286  MEMB      166             0.0000000000
     19297       166  POPC      H5R           -45.3683562797      -29.1027864926        9.8249714857  MEMB      166             0.0000000000
     19298       166  POPC      H5S           -46.9798574772      -29.2640258440        8.9531216807  MEMB      166             0.0000000000
     19299       166  POPC      C26           -45.7437055511      -30.9463532740        8.9442206672  MEMB      166             0.0000000000
     19300       166  POPC      H6R           -46.5486799458      -31.7076785833        8.8622379323  MEMB      166             0.0000000000
     19301       166  POPC      H6S           -44.8444611061      -31.3270718326        9.4740638799  MEMB      166             0.0000000000
     19302       166  POPC      C27           -45.4578086894      -30.5847545886        7.4623830139  MEMB      166             0.0000000000
     19303       166  POPC      H7R           -45.0850571654      -29.5383644664        7.4834707141  MEMB      166             0.0000000000
     19304       166  POPC      H7S           -46.3551106589      -30.4289805766        6.8260611062  MEMB      166             0.0000000000
     19305       166  POPC      C28           -44.6038927276      -31.5294487193        6.6533790788  MEMB      166             0.0000000000
     19306       166  POPC      H8R           -44.7904422601      -31.3824606818        5.5680608800  MEMB      166             0.0000000000
     19307       166  POPC      H8S           -45.0159731594      -32.5218453402        6.9356183055  MEMB      166             0.0000000000
     19308       166  POPC      C29           -43.1410740717      -31.3547840943        6.9795156610  MEMB      166             0.0000000000
     19309       166  POPC      H91           -42.8140109092      -30.3045610574        6.9716994224  MEMB      166             0.0000000000
     19310       166  POPC      C210          -42.2670399659      -32.3525670534        7.2944391561  MEMB      166             0.0000000000
     19311       166  POPC      H101          -41.2269859231      -32.1738296629        7.6048268452  MEMB      166             0.0000000000
     19312       166  POPC      C211          -42.6437346335      -33.8251929462        7.3644997650  MEMB      166             0.0000000000
     19313       166  POPC      H11R          -43.4449763524      -33.9414207771        8.1253044921  MEMB      166             0.0000000000
     19314       166  POPC      H11S          -41.6865378204      -34.2358206626        7.7511262140  MEMB      166             0.0000000000
     19315       166  POPC      C212          -42.9161132801      -34.5985096883        6.0300442395  MEMB      166             0.0000000000
     19316       166  POPC      H12R          -43.9670216026      -34.3285599165        5.7912136120  MEMB      166             0.0000000000
     19317       166  POPC      H12S          -42.7906727345      -35.6930348469        6.1735722817  MEMB      166             0.0000000000
     19318       166  POPC      C213          -42.1121048175      -34.2696426262        4.7776425569  MEMB      166             0.0000000000
     19319       166  POPC      H13R          -41.0278956399      -34.5072049654        4.8263797922  MEMB      166             0.0000000000
     19320       166  POPC      H13S          -42.1834501911      -33.1652670466        4.6797370058  MEMB      166             0.0000000000
     19321       166  POPC      C214          -42.8139859584      -34.8031797746        3.5597479150  MEMB      166             0.0000000000
     19322       166  POPC      H14R          -43.8274242748      -34.3992454248        3.3497455208  MEMB      166             0.0000000000
     19323       166  POPC      H14S          -43.1200607748      -35.8704877871        3.5983839333  MEMB      166             0.0000000000
     19324       166  POPC      C215          -41.8955950587      -34.6351895015        2.3729334002  MEMB      166             0.0000000000
     19325       166  POPC      H15R          -41.0795050060      -35.3753101002        2.5162495639  MEMB      166             0.0000000000
     19326       166  POPC      H15S          -41.4412935871      -33.6368113889        2.5494900450  MEMB      166             0.0000000000
     19327       166  POPC      C216          -42.4818964561      -35.0816447216        1.0414769667  MEMB      166             0.0000000000
     19328       166  POPC      H16R          -43.0708605722      -34.2414110932        0.6155074261  MEMB      166             0.0000000000
     19329       166  POPC      H16S          -42.9164601815      -36.1008160389        1.1237265735  MEMB      166             0.0000000000
     19330       166  POPC      C217          -41.3549654213      -35.2710438597        0.0674479859  MEMB      166             0.0000000000
     19331       166  POPC      H17R          -41.7856206680      -35.6884550230       -0.8677648030  MEMB      166             0.0000000000
     19332       166  POPC      H17S          -40.6452405541      -36.0526368349        0.4134593256  MEMB      166             0.0000000000
     19333       166  POPC      C218          -40.5433840871      -34.0293991441       -0.4187023188  MEMB      166             0.0000000000
     19334       166  POPC      H18R          -39.7502217249      -34.2395893626       -1.1677236221  MEMB      166             0.0000000000
     19335       166  POPC      H18S          -39.9717961247      -33.4644438594        0.3483930476  MEMB      166             0.0000000000
     19336       166  POPC      H18T          -41.2777650579      -33.3216357814       -0.8592431111  MEMB      166             0.0000000000
     19337       166  POPC      C33           -43.9355298025      -33.2498179005       12.6016013483  MEMB      166             0.0000000000
     19338       166  POPC      H3X           -44.0828581758      -32.4829174189       11.8113616946  MEMB      166             0.0000000000
     19339       166  POPC      H3Y           -44.6930843775      -32.8346410941       13.3002145664  MEMB      166             0.0000000000
     19340       166  POPC      C34           -44.2706136346      -34.6393711329       12.2678610215  MEMB      166             0.0000000000
     19341       166  POPC      H4X           -44.4094747432      -35.3633114706       13.0990941277  MEMB      166             0.0000000000
     19342       166  POPC      H4Y           -43.6293692396      -35.0445247495       11.4560866131  MEMB      166             0.0000000000
     19343       166  POPC      C35           -45.6165039446      -34.6603299138       11.5314059466  MEMB      166             0.0000000000
     19344       166  POPC      H5X           -45.6786693573      -33.8585728379       10.7648275145  MEMB      166             0.0000000000
     19345       166  POPC      H5Y           -46.4456172141      -34.3933346104       12.2210476092  MEMB      166             0.0000000000
     19346       166  POPC      C36           -46.1019620152      -35.9473308445       10.8689828512  MEMB      166             0.0000000000
     19347       166  POPC      H6X           -47.1731870736      -35.8370007723       10.5958063943  MEMB      166             0.0000000000
     19348       166  POPC      H6Y           -46.0953051123      -36.8374365862       11.5338049496  MEMB      166             0.0000000000
     19349       166  POPC      C37           -45.4039176027      -36.2652169635        9.4939170974  MEMB      166             0.0000000000
     19350       166  POPC      H7X           -44.4058357806      -36.7384829989        9.6129672142  MEMB      166             0.0000000000
     19351       166  POPC      H7Y           -45.3224293482      -35.2713852756        9.0040403213  MEMB      166             0.0000000000
     19352       166  POPC      C38           -46.1981701502      -37.1960427308        8.5892332703  MEMB      166             0.0000000000
     19353       166  POPC      H8X           -47.2166438241      -36.9043827680        8.9238477852  MEMB      166             0.0000000000
     19354       166  POPC      H8Y           -45.8727668212      -38.2398171501        8.7866382153  MEMB      166             0.0000000000
     19355       166  POPC      C39           -46.0388639438      -36.9036225908        7.0421790729  MEMB      166             0.0000000000
     19356       166  POPC      H9X           -46.4300855060      -37.7767360322        6.4774317302  MEMB      166             0.0000000000
     19357       166  POPC      H9Y           -44.9796603250      -36.7213252105        6.7607965063  MEMB      166             0.0000000000
     19358       166  POPC      C310          -46.7156376561      -35.5975996405        6.5778884739  MEMB      166             0.0000000000
     19359       166  POPC      H10X          -46.2292950177      -34.7559198961        7.1158170228  MEMB      166             0.0000000000
     19360       166  POPC      H10Y          -47.7572436878      -35.5046951397        6.9530508580  MEMB      166             0.0000000000
     19361       166  POPC      C311          -46.7072587814      -35.2815188580        5.1008821441  MEMB      166             0.0000000000
     19362       166  POPC      H11X          -47.4506002212      -35.9904423960        4.6775717916  MEMB      166             0.0000000000
     19363       166  POPC      H11Y          -45.7289001965      -35.6651258030        4.7403529109  MEMB      166             0.0000000000
     19364       166  POPC      C312          -47.0770146346      -33.9602551902        4.6651239094  MEMB      166             0.0000000000
     19365       166  POPC      H12X          -46.2232426071      -33.2973529739        4.9219409712  MEMB      166             0.0000000000
     19366       166  POPC      H12Y          -48.0058206361      -33.5534936957        5.1191996958  MEMB      166             0.0000000000
     19367       166  POPC      C313          -47.2331711724      -33.8208967427        3.1436060216  MEMB      166             0.0000000000
     19368       166  POPC      H13X          -48.2677010684      -34.1866448923        2.9695441224  MEMB      166             0.0000000000
     19369       166  POPC      H13Y          -46.5081446767      -34.5570863570        2.7353385077  MEMB      166             0.0000000000
     19370       166  POPC      C314          -46.7397722551      -32.5026328053        2.5766096319  MEMB      166             0.0000000000
     19371       166  POPC      H14X          -45.6325703299      -32.4243218281        2.5287342852  MEMB      166             0.0000000000
     19372       166  POPC      H14Y          -47.0400724070      -31.7349370586        3.3214485611  MEMB      166             0.0000000000
     19373       166  POPC      C315          -47.4110269261      -32.0442605993        1.2986378470  MEMB      166             0.0000000000
     19374       166  POPC      H15X          -48.5193684931      -31.9749409984        1.2655465704  MEMB      166             0.0000000000
     19375       166  POPC      H15Y          -47.2198261825      -32.6519736614        0.3884455206  MEMB      166             0.0000000000
     19376       166  POPC      C316          -47.2310906004      -30.6519470322        0.8632691656  MEMB      166             0.0000000000
     19377       166  POPC      H16X          -47.7690529101      -29.9858994438        1.5712946244  MEMB      166             0.0000000000
     19378       166  POPC      H16Y          -47.5322736994      -30.3660310735       -0.1671972833  MEMB      166             0.0000000000
     19379       166  POPC      H16Z          -46.1505597192      -30.3978734000        0.9103922233  MEMB      166             0.0000000000
     19380       167  POPE      N             -31.7231550911      -48.9980561210       19.9060787591  MEMB      167             0.0000000000
     19381       167  POPE      HN1           -32.0378494593      -48.0631439333       19.5766749494  MEMB      167             0.0000000000
     19382       167  POPE      HN2           -32.0122453455      -49.1183412878       20.8978238340  MEMB      167             0.0000000000
     19383       167  POPE      HN3           -30.7021059523      -49.1448719547       19.7737769418  MEMB      167             0.0000000000
     19384       167  POPE      C12           -32.4565026752      -50.0815513194       19.0689453209  MEMB      167             0.0000000000
     19385       167  POPE      H12A          -33.1747089471      -49.5119490668       18.4412079730  MEMB      167             0.0000000000
     19386       167  POPE      H12B          -33.0440569329      -50.7080557696       19.7736388868  MEMB      167             0.0000000000
     19387       167  POPE      C11           -31.3601743492      -50.8124876115       18.2679986691  MEMB      167             0.0000000000
     19388       167  POPE      H11A          -30.8422129169      -49.9870049389       17.7345050323  MEMB      167             0.0000000000
     19389       167  POPE      H11B          -31.7463269614      -51.3339650726       17.3661847441  MEMB      167             0.0000000000
     19390       167  POPE      P             -30.8366087962      -53.1924812367       19.0127120676  MEMB      167             0.0000000000
     19391       167  POPE      O13           -32.2888903275      -53.3224972275       19.0520905654  MEMB      167             0.0000000000
     19392       167  POPE      O14           -30.0039968385      -53.9175768546       19.9930732566  MEMB      167             0.0000000000
     19393       167  POPE      O11           -30.3442538929      -53.5831004367       17.5828274315  MEMB      167             0.0000000000
     19394       167  POPE      O12           -30.5614708321      -51.6540660096       19.1162739550  MEMB      167             0.0000000000
     19395       167  POPE      C1            -29.2064518246      -53.2806982167       16.8428350941  MEMB      167             0.0000000000
     19396       167  POPE      HA            -28.3170229771      -53.8879279563       17.1157994649  MEMB      167             0.0000000000
     19397       167  POPE      HB            -28.9754201227      -52.2007095388       16.9635406600  MEMB      167             0.0000000000
     19398       167  POPE      C2            -29.6101497255      -53.5907111144       15.3995561721  MEMB      167             0.0000000000
     19399       167  POPE      HS            -28.7199205837      -53.5183532128       14.7388161406  MEMB      167             0.0000000000
     19400       167  POPE      O21           -30.7772704658      -52.8618476589       14.9736353287  MEMB      167             0.0000000000
     19401       167  POPE      C21           -30.4429245484      -51.6749271675       14.3806036459  MEMB      167             0.0000000000
     19402       167  POPE      O22           -29.3407873512      -51.2554179224       14.3295676487  MEMB      167             0.0000000000
     19403       167  POPE      C22           -31.7324476676      -50.9251989482       14.1234147075  MEMB      167             0.0000000000
     19404       167  POPE      H2R           -31.5340447077      -49.8517726612       13.9167422271  MEMB      167             0.0000000000
     19405       167  POPE      H2S           -32.4115655503      -50.9770520349       15.0011566529  MEMB      167             0.0000000000
     19406       167  POPE      C3            -29.8945352409      -55.0720804774       15.2440312599  MEMB      167             0.0000000000
     19407       167  POPE      HX            -30.5493365461      -55.4701881906       16.0484354667  MEMB      167             0.0000000000
     19408       167  POPE      HY            -28.9196118163      -55.5911585827       15.3640446001  MEMB      167             0.0000000000
     19409       167  POPE      O31           -30.4110167230      -55.4114206418       13.9310198542  MEMB      167             0.0000000000
     19410       167  POPE      C31           -31.7714133375      -55.6872164729       13.7597349478  MEMB      167             0.0000000000
     19411       167  POPE      O32           -32.6297863940      -55.6076742188       14.5963200054  MEMB      167             0.0000000000
     19412       167  POPE      C32           -31.9535632867      -56.1702641364       12.3375775076  MEMB      167             0.0000000000
     19413       167  POPE      H2X           -31.0562157881      -56.7456694419       12.0245320826  MEMB      167             0.0000000000
     19414       167  POPE      H2Y           -32.0624059483      -55.2872030165       11.6722373496  MEMB      167             0.0000000000
     19415       167  POPE      C23           -32.4562962014      -51.4924592076       12.9341292603  MEMB      167             0.0000000000
     19416       167  POPE      H3R           -33.5540213101      -51.3895147320       13.0709614327  MEMB      167             0.0000000000
     19417       167  POPE      H3S           -32.3229251386      -52.5940624482       12.8793251158  MEMB      167             0.0000000000
     19418       167  POPE      C24           -32.0926670654      -50.7891664626       11.6132425053  MEMB      167             0.0000000000
     19419       167  POPE      H4R           -32.0372906639      -49.6967027589       11.8076068916  MEMB      167             0.0000000000
     19420       167  POPE      H4S           -32.8970741480      -50.8763021098       10.8518898380  MEMB      167             0.0000000000
     19421       167  POPE      C25           -30.7771451392      -51.3217339587       10.9904923857  MEMB      167             0.0000000000
     19422       167  POPE      H5R           -29.9954719731      -51.2761569207       11.7786739688  MEMB      167             0.0000000000
     19423       167  POPE      H5S           -30.5245400935      -50.6246892321       10.1630624210  MEMB      167             0.0000000000
     19424       167  POPE      C26           -30.7736673402      -52.8194457803       10.5085350262  MEMB      167             0.0000000000
     19425       167  POPE      H6R           -31.7299890812      -53.2206098265       10.1099916738  MEMB      167             0.0000000000
     19426       167  POPE      H6S           -30.5412205392      -53.4084787396       11.4214039944  MEMB      167             0.0000000000
     19427       167  POPE      C27           -29.7582394840      -53.1919136753        9.4419595942  MEMB      167             0.0000000000
     19428       167  POPE      H7R           -28.7810111255      -52.8520227841        9.8467054039  MEMB      167             0.0000000000
     19429       167  POPE      H7S           -30.2301363719      -52.6779689505        8.5773807835  MEMB      167             0.0000000000
     19430       167  POPE      C28           -29.7244461056      -54.6846625510        9.1358407887  MEMB      167             0.0000000000
     19431       167  POPE      H8R           -30.7596929720      -55.0268648539        8.9225738883  MEMB      167             0.0000000000
     19432       167  POPE      H8S           -29.3881470926      -55.1918746459       10.0653344197  MEMB      167             0.0000000000
     19433       167  POPE      C29           -28.7972026691      -55.0434413686        8.0017776717  MEMB      167             0.0000000000
     19434       167  POPE      H91           -27.7586856963      -55.2031058673        8.3273388930  MEMB      167             0.0000000000
     19435       167  POPE      C210          -29.1008610654      -54.9587407645        6.7196555280  MEMB      167             0.0000000000
     19436       167  POPE      H101          -28.2527257566      -54.9360128841        6.0195484605  MEMB      167             0.0000000000
     19437       167  POPE      C211          -30.3511591109      -54.4955143890        6.0810715258  MEMB      167             0.0000000000
     19438       167  POPE      H11R          -31.2219312397      -54.2792430286        6.7362842457  MEMB      167             0.0000000000
     19439       167  POPE      H11S          -30.6486198097      -55.1989096054        5.2741809628  MEMB      167             0.0000000000
     19440       167  POPE      C212          -30.1518507170      -53.1267083053        5.3039236692  MEMB      167             0.0000000000
     19441       167  POPE      H12R          -29.2281243506      -53.2448016119        4.6980318086  MEMB      167             0.0000000000
     19442       167  POPE      H12S          -29.9977290179      -52.4019409406        6.1317404755  MEMB      167             0.0000000000
     19443       167  POPE      C213          -31.4071921105      -52.8451555165        4.5860348575  MEMB      167             0.0000000000
     19444       167  POPE      H13R          -32.0832347425      -52.7247319980        5.4594106874  MEMB      167             0.0000000000
     19445       167  POPE      H13S          -31.5999116245      -53.6662549114        3.8628635584  MEMB      167             0.0000000000
     19446       167  POPE      C214          -31.3390965965      -51.5643172590        3.8106934238  MEMB      167             0.0000000000
     19447       167  POPE      H14R          -30.5579086427      -51.6513072644        3.0255194119  MEMB      167             0.0000000000
     19448       167  POPE      H14S          -30.9336402006      -50.7861362244        4.4921332977  MEMB      167             0.0000000000
     19449       167  POPE      C215          -32.7150995252      -51.1291626977        3.2067725414  MEMB      167             0.0000000000
     19450       167  POPE      H15R          -33.4462940528      -50.7306712545        3.9422181666  MEMB      167             0.0000000000
     19451       167  POPE      H15S          -33.1342997912      -52.0944492608        2.8506619532  MEMB      167             0.0000000000
     19452       167  POPE      C216          -32.5759460815      -50.0975253989        2.1151211020  MEMB      167             0.0000000000
     19453       167  POPE      H16R          -31.6306918443      -50.3659092016        1.5966756479  MEMB      167             0.0000000000
     19454       167  POPE      H16S          -32.2846454341      -49.0680460508        2.4145168244  MEMB      167             0.0000000000
     19455       167  POPE      C217          -33.7881369508      -50.0669914334        1.1099303228  MEMB      167             0.0000000000
     19456       167  POPE      H17R          -33.6028259423      -49.1699487790        0.4812058201  MEMB      167             0.0000000000
     19457       167  POPE      H17S          -34.7839869520      -50.0073416682        1.5988541285  MEMB      167             0.0000000000
     19458       167  POPE      C218          -33.8212079608      -51.1615924557        0.1278509666  MEMB      167             0.0000000000
     19459       167  POPE      H18R          -34.0448715461      -52.1197625549        0.6438023258  MEMB      167             0.0000000000
     19460       167  POPE      H18S          -32.8296792756      -51.3320608588       -0.3434587078  MEMB      167             0.0000000000
     19461       167  POPE      H18T          -34.6174341566      -50.9892304627       -0.6275536468  MEMB      167             0.0000000000
     19462       167  POPE      C33           -33.2488696517      -56.9489168153       12.1507888505  MEMB      167             0.0000000000
     19463       167  POPE      H3X           -34.0908418018      -56.4417546128       12.6686596144  MEMB      167             0.0000000000
     19464       167  POPE      H3Y           -33.1460869634      -57.9455393621       12.6308931912  MEMB      167             0.0000000000
     19465       167  POPE      C34           -33.5016272961      -57.3376555094       10.6435288492  MEMB      167             0.0000000000
     19466       167  POPE      H4X           -34.3578374079      -58.0286612989       10.4894623251  MEMB      167             0.0000000000
     19467       167  POPE      H4Y           -32.6184163430      -57.8497015707       10.2052727390  MEMB      167             0.0000000000
     19468       167  POPE      C35           -33.7934614910      -56.0647741167        9.8381661965  MEMB      167             0.0000000000
     19469       167  POPE      H5X           -33.1625154136      -55.1705184828       10.0293069145  MEMB      167             0.0000000000
     19470       167  POPE      H5Y           -34.8219093617      -55.7477057228       10.1139986927  MEMB      167             0.0000000000
     19471       167  POPE      C36           -33.7883809858      -56.3727251159        8.3468409126  MEMB      167             0.0000000000
     19472       167  POPE      H6X           -34.4346745715      -57.2625219067        8.1890842998  MEMB      167             0.0000000000
     19473       167  POPE      H6Y           -32.7535029423      -56.6347660503        8.0391352525  MEMB      167             0.0000000000
     19474       167  POPE      C37           -34.3328324497      -55.1471812978        7.5324921789  MEMB      167             0.0000000000
     19475       167  POPE      H7X           -33.8226916868      -54.3404275449        8.1010219798  MEMB      167             0.0000000000
     19476       167  POPE      H7Y           -35.4060175797      -54.9967687575        7.7773821730  MEMB      167             0.0000000000
     19477       167  POPE      C38           -34.2231231061      -55.1651844864        5.9754360875  MEMB      167             0.0000000000
     19478       167  POPE      H8X           -33.1241082156      -55.0940084011        5.8290762596  MEMB      167             0.0000000000
     19479       167  POPE      H8Y           -34.6466690795      -54.1974266323        5.6313798234  MEMB      167             0.0000000000
     19480       167  POPE      C39           -34.7799138436      -56.3815697836        5.2254016020  MEMB      167             0.0000000000
     19481       167  POPE      H9X           -35.8673568691      -56.2491100164        5.0403532628  MEMB      167             0.0000000000
     19482       167  POPE      H9Y           -34.5273373845      -57.3027883548        5.7927486827  MEMB      167             0.0000000000
     19483       167  POPE      C310          -34.0488031298      -56.6145331131        3.8935109882  MEMB      167             0.0000000000
     19484       167  POPE      H10X          -34.1308181630      -57.7085343036        3.7181362314  MEMB      167             0.0000000000
     19485       167  POPE      H10Y          -32.9636704771      -56.5497724899        4.1228884782  MEMB      167             0.0000000000
     19486       167  POPE      C311          -34.3620892376      -55.5744597597        2.8276217586  MEMB      167             0.0000000000
     19487       167  POPE      H11X          -33.6145384389      -55.5436156124        2.0063206947  MEMB      167             0.0000000000
     19488       167  POPE      H11Y          -34.4084165996      -54.5218335108        3.1799746423  MEMB      167             0.0000000000
     19489       167  POPE      C312          -35.7936380967      -55.9045968586        2.1661556466  MEMB      167             0.0000000000
     19490       167  POPE      H12X          -36.5491948842      -55.6448432920        2.9381555115  MEMB      167             0.0000000000
     19491       167  POPE      H12Y          -35.7715791663      -56.9882141651        1.9220076015  MEMB      167             0.0000000000
     19492       167  POPE      C313          -36.0140304591      -55.1056113514        0.8842790230  MEMB      167             0.0000000000
     19493       167  POPE      H13X          -35.2100529847      -55.3145234319        0.1465145006  MEMB      167             0.0000000000
     19494       167  POPE      H13Y          -35.9528538149      -54.0222392659        1.1227817565  MEMB      167             0.0000000000
     19495       167  POPE      C314          -37.3802286617      -55.3279730804        0.1891672556  MEMB      167             0.0000000000
     19496       167  POPE      H14X          -37.4572856172      -54.4464053991       -0.4825628033  MEMB      167             0.0000000000
     19497       167  POPE      H14Y          -38.1563417075      -55.2388887941        0.9791252854  MEMB      167             0.0000000000
     19498       167  POPE      C315          -37.4565904967      -56.6821961914       -0.5542183089  MEMB      167             0.0000000000
     19499       167  POPE      H15X          -38.5327463876      -56.8599060563       -0.7654746845  MEMB      167             0.0000000000
     19500       167  POPE      H15Y          -36.9080224497      -57.3995193440        0.0929614936  MEMB      167             0.0000000000
     19501       167  POPE      C316          -36.7675295931      -56.6692696564       -1.9322649817  MEMB      167             0.0000000000
     19502       167  POPE      H16X          -36.7242895876      -57.6370918721       -2.4761128394  MEMB      167             0.0000000000
     19503       167  POPE      H16Y          -35.6758268134      -56.5432331885       -1.7691057640  MEMB      167             0.0000000000
     19504       167  POPE      H16Z          -37.0546606868      -55.9090659271       -2.6898713437  MEMB      167             0.0000000000
     19505       168  POPC      N              50.7533745296       41.4756056194       20.2089644238  MEMB      168             0.0000000000
     19506       168  POPC      C12            50.6897746792       42.4021624033       19.1041479435  MEMB      168             0.0000000000
     19507       168  POPC      H12A           51.6698798383       42.5237609311       18.6671034541  MEMB      168             0.0000000000
     19508       168  POPC      H12B           50.4359210133       43.4101145487       19.3973896351  MEMB      168             0.0000000000
     19509       168  POPC      C13            50.8744891636       40.0921563095       19.7261551434  MEMB      168             0.0000000000
     19510       168  POPC      H13A           51.0009231448       39.4385698706       20.5765897112  MEMB      168             0.0000000000
     19511       168  POPC      H13B           49.9573921688       39.8230176334       19.2232658869  MEMB      168             0.0000000000
     19512       168  POPC      H13C           51.6936642112       40.0274396746       19.0253241624  MEMB      168             0.0000000000
     19513       168  POPC      C14            52.0276092574       41.7576906276       20.9461345656  MEMB      168             0.0000000000
     19514       168  POPC      H14A           52.7877396131       41.4352134132       20.2499950536  MEMB      168             0.0000000000
     19515       168  POPC      H14B           52.1218122334       42.8183651185       21.1263993470  MEMB      168             0.0000000000
     19516       168  POPC      H14C           51.9582298212       41.1748665341       21.8527229468  MEMB      168             0.0000000000
     19517       168  POPC      C15            49.5266233318       41.7179904156       21.0892393333  MEMB      168             0.0000000000
     19518       168  POPC      H15A           49.5214855310       42.7874604166       21.2395973030  MEMB      168             0.0000000000
     19519       168  POPC      H15B           49.5868804050       41.1359820710       21.9970034084  MEMB      168             0.0000000000
     19520       168  POPC      H15C           48.6582397601       41.5133876688       20.4805953446  MEMB      168             0.0000000000
     19521       168  POPC      C11            49.6483968020       42.1842987782       17.9689870017  MEMB      168             0.0000000000
     19522       168  POPC      H11A           49.8055561839       41.1848650445       17.5099072657  MEMB      168             0.0000000000
     19523       168  POPC      H11B           49.8356693160       42.9301199193       17.1671136747  MEMB      168             0.0000000000
     19524       168  POPC      P              47.2597863045       43.2029317384       18.0330172051  MEMB      168             0.0000000000
     19525       168  POPC      O13            47.8415154921       44.5529707784       18.2971778596  MEMB      168             0.0000000000
     19526       168  POPC      O14            45.9983901234       42.7712256681       18.6919984902  MEMB      168             0.0000000000
     19527       168  POPC      O12            48.3681886543       42.1839942956       18.5080062975  MEMB      168             0.0000000000
     19528       168  POPC      O11            47.0722384577       43.1347412657       16.4261717370  MEMB      168             0.0000000000
     19529       168  POPC      C1             46.7118766578       41.8714971268       15.9501656001  MEMB      168             0.0000000000
     19530       168  POPC      HA             45.9616912719       41.9716128338       15.1368270516  MEMB      168             0.0000000000
     19531       168  POPC      HB             46.3172762095       41.1571230212       16.7040098172  MEMB      168             0.0000000000
     19532       168  POPC      C2             47.9424691532       41.0583653029       15.2638994172  MEMB      168             0.0000000000
     19533       168  POPC      HS             48.3927117811       40.5775036392       16.1585361438  MEMB      168             0.0000000000
     19534       168  POPC      O21            48.8809397879       42.0174958276       14.8766815121  MEMB      168             0.0000000000
     19535       168  POPC      C21            50.1420362357       41.6634841554       14.6142789179  MEMB      168             0.0000000000
     19536       168  POPC      O22            50.5668288502       40.5211685889       14.6968782279  MEMB      168             0.0000000000
     19537       168  POPC      C22            50.9280541004       42.8897483060       14.0986087550  MEMB      168             0.0000000000
     19538       168  POPC      H2R            51.7674317997       43.1513377668       14.7778269919  MEMB      168             0.0000000000
     19539       168  POPC      H2S            50.1990661178       43.7271951735       14.0588576290  MEMB      168             0.0000000000
     19540       168  POPC      C3             47.5277663579       40.1343327667       14.0884333934  MEMB      168             0.0000000000
     19541       168  POPC      HX             46.6932264906       39.4614983908       14.3802523389  MEMB      168             0.0000000000
     19542       168  POPC      HY             48.3457910660       39.4771808521       13.7233199405  MEMB      168             0.0000000000
     19543       168  POPC      O31            47.0858183333       40.8753698477       12.9498129444  MEMB      168             0.0000000000
     19544       168  POPC      C31            47.0762343289       40.1057375346       11.8547259929  MEMB      168             0.0000000000
     19545       168  POPC      O32            47.2251194591       38.9297802919       11.8419585201  MEMB      168             0.0000000000
     19546       168  POPC      C32            46.5508998338       40.8434779050       10.5649899395  MEMB      168             0.0000000000
     19547       168  POPC      H2X            47.3967503936       41.1957827000        9.9367069649  MEMB      168             0.0000000000
     19548       168  POPC      H2Y            46.0587292625       41.7531528039       10.9706749165  MEMB      168             0.0000000000
     19549       168  POPC      C23            51.4018850255       42.5411589909       12.6881863619  MEMB      168             0.0000000000
     19550       168  POPC      H3R            51.5912571113       41.4657841463       12.4831785951  MEMB      168             0.0000000000
     19551       168  POPC      H3S            52.2685446928       43.2197350968       12.5373340010  MEMB      168             0.0000000000
     19552       168  POPC      C24            50.2483526005       42.8442728485       11.6852987890  MEMB      168             0.0000000000
     19553       168  POPC      H4R            49.9928360664       43.9063028597       11.8880908549  MEMB      168             0.0000000000
     19554       168  POPC      H4S            49.3178389421       42.2387335259       11.6430189956  MEMB      168             0.0000000000
     19555       168  POPC      C25            50.5998849539       42.7494191231       10.1772106883  MEMB      168             0.0000000000
     19556       168  POPC      H5R            49.7027955420       43.0643557435        9.6024345774  MEMB      168             0.0000000000
     19557       168  POPC      H5S            50.8513620458       41.6917969910        9.9480472815  MEMB      168             0.0000000000
     19558       168  POPC      C26            51.8670369484       43.5119015310        9.7255950766  MEMB      168             0.0000000000
     19559       168  POPC      H6R            52.6362832369       43.1007289876       10.4137216171  MEMB      168             0.0000000000
     19560       168  POPC      H6S            51.6581366067       44.5981632926        9.8291177202  MEMB      168             0.0000000000
     19561       168  POPC      C27            52.2335317087       43.4175516174        8.2258513705  MEMB      168             0.0000000000
     19562       168  POPC      H7R            52.2147465626       42.3554820444        7.9003109425  MEMB      168             0.0000000000
     19563       168  POPC      H7S            53.2846924144       43.7675815650        8.3086827538  MEMB      168             0.0000000000
     19564       168  POPC      C28            51.3174437580       44.4100024391        7.4085526546  MEMB      168             0.0000000000
     19565       168  POPC      H8R            51.2332399467       45.3340743730        8.0195534157  MEMB      168             0.0000000000
     19566       168  POPC      H8S            50.3425984725       43.8887528799        7.2976643716  MEMB      168             0.0000000000
     19567       168  POPC      C29            51.8870109368       44.6136002847        6.0136995617  MEMB      168             0.0000000000
     19568       168  POPC      H91            52.4824797861       45.5384205440        6.0025718776  MEMB      168             0.0000000000
     19569       168  POPC      C210           51.4879470841       43.9376443734        4.9021728558  MEMB      168             0.0000000000
     19570       168  POPC      H101           51.9110300576       44.3296237855        3.9655018449  MEMB      168             0.0000000000
     19571       168  POPC      C211           50.4542391317       42.8985503372        4.6983453887  MEMB      168             0.0000000000
     19572       168  POPC      H11R           50.5085589301       42.1407270684        5.5089459215  MEMB      168             0.0000000000
     19573       168  POPC      H11S           50.6773879081       42.2544645986        3.8210316105  MEMB      168             0.0000000000
     19574       168  POPC      C212           49.0166619901       43.3793069603        4.6230993558  MEMB      168             0.0000000000
     19575       168  POPC      H12R           48.7258934535       43.7328230667        5.6354245261  MEMB      168             0.0000000000
     19576       168  POPC      H12S           48.3943205626       42.4672201573        4.5001769127  MEMB      168             0.0000000000
     19577       168  POPC      C213           48.6674413361       44.3769335143        3.5819493000  MEMB      168             0.0000000000
     19578       168  POPC      H13R           48.9209436937       43.8787437377        2.6218111408  MEMB      168             0.0000000000
     19579       168  POPC      H13S           49.3572095116       45.2436860738        3.6672774904  MEMB      168             0.0000000000
     19580       168  POPC      C214           47.2042184832       44.9574363072        3.6283998001  MEMB      168             0.0000000000
     19581       168  POPC      H14R           46.9865373799       45.7207654084        2.8510554956  MEMB      168             0.0000000000
     19582       168  POPC      H14S           47.0606716615       45.4497966620        4.6139435544  MEMB      168             0.0000000000
     19583       168  POPC      C215           46.1779503716       43.7784885370        3.6173042550  MEMB      168             0.0000000000
     19584       168  POPC      H15R           45.1512225999       44.0749592678        3.9210414011  MEMB      168             0.0000000000
     19585       168  POPC      H15S           46.3901593849       42.9591842484        4.3370459736  MEMB      168             0.0000000000
     19586       168  POPC      C216           45.9123306160       43.1091594077        2.2522864808  MEMB      168             0.0000000000
     19587       168  POPC      H16R           45.1116754934       42.3603241414        2.4326146810  MEMB      168             0.0000000000
     19588       168  POPC      H16S           46.8653496097       42.6590181768        1.9009340381  MEMB      168             0.0000000000
     19589       168  POPC      C217           45.6089474538       44.0455928939        1.0926936545  MEMB      168             0.0000000000
     19590       168  POPC      H17R           46.4260248817       44.7957656042        1.0298726738  MEMB      168             0.0000000000
     19591       168  POPC      H17S           44.7539680665       44.7549535827        1.0809149457  MEMB      168             0.0000000000
     19592       168  POPC      C218           45.5827106961       43.2967854599       -0.2884552039  MEMB      168             0.0000000000
     19593       168  POPC      H18R           46.6075773116       43.0097644861       -0.6071843684  MEMB      168             0.0000000000
     19594       168  POPC      H18S           45.1115752405       43.8455126884       -1.1318119328  MEMB      168             0.0000000000
     19595       168  POPC      H18T           45.0489438346       42.3300633128       -0.1665446020  MEMB      168             0.0000000000
     19596       168  POPC      C33            45.6425516818       39.8738726570        9.7357664211  MEMB      168             0.0000000000
     19597       168  POPC      H3X            44.7795935374       39.4258931296       10.2732960433  MEMB      168             0.0000000000
     19598       168  POPC      H3Y            46.2237763777       39.0196577213        9.3273349044  MEMB      168             0.0000000000
     19599       168  POPC      C34            44.9203237217       40.6222432722        8.5901578292  MEMB      168             0.0000000000
     19600       168  POPC      H4X            44.2450318202       41.4035895286        8.9997911675  MEMB      168             0.0000000000
     19601       168  POPC      H4Y            44.3695138337       39.7822228484        8.1155046889  MEMB      168             0.0000000000
     19602       168  POPC      C35            45.8786799126       41.1493101248        7.5711451177  MEMB      168             0.0000000000
     19603       168  POPC      H5X            46.3252036581       42.0418634438        8.0592911000  MEMB      168             0.0000000000
     19604       168  POPC      H5Y            45.4169670177       41.5845155149        6.6591486711  MEMB      168             0.0000000000
     19605       168  POPC      C36            47.1119513440       40.3324657929        7.0387887785  MEMB      168             0.0000000000
     19606       168  POPC      H6X            47.8604661339       39.9932081193        7.7864182936  MEMB      168             0.0000000000
     19607       168  POPC      H6Y            47.5657644806       41.0860714713        6.3602213619  MEMB      168             0.0000000000
     19608       168  POPC      C37            46.6863330126       39.0183992699        6.3694878780  MEMB      168             0.0000000000
     19609       168  POPC      H7X            45.7821338592       39.2972840343        5.7872775425  MEMB      168             0.0000000000
     19610       168  POPC      H7Y            46.3184789337       38.3032605446        7.1360259716  MEMB      168             0.0000000000
     19611       168  POPC      C38            47.7995221069       38.3427565249        5.4991808486  MEMB      168             0.0000000000
     19612       168  POPC      H8X            47.3154193284       37.4097709334        5.1393151269  MEMB      168             0.0000000000
     19613       168  POPC      H8Y            48.6358694892       37.9825523164        6.1356534497  MEMB      168             0.0000000000
     19614       168  POPC      C39            48.3846464210       39.1870759201        4.3833751312  MEMB      168             0.0000000000
     19615       168  POPC      H9X            48.9018164290       39.9842465713        4.9590266101  MEMB      168             0.0000000000
     19616       168  POPC      H9Y            47.5156950517       39.6284147602        3.8500228087  MEMB      168             0.0000000000
     19617       168  POPC      C310           49.3666059482       38.4534558905        3.3655737719  MEMB      168             0.0000000000
     19618       168  POPC      H10X           48.7892870171       37.6227484471        2.9062819917  MEMB      168             0.0000000000
     19619       168  POPC      H10Y           50.1696656752       37.9561792732        3.9504949035  MEMB      168             0.0000000000
     19620       168  POPC      C311           50.0309036126       39.5008034939        2.5017788857  MEMB      168             0.0000000000
     19621       168  POPC      H11X           50.7100074281       38.9516822320        1.8150436224  MEMB      168             0.0000000000
     19622       168  POPC      H11Y           50.5781396826       40.2522158545        3.1102467075  MEMB      168             0.0000000000
     19623       168  POPC      C312           49.0963825520       40.3932400558        1.5686925996  MEMB      168             0.0000000000
     19624       168  POPC      H12X           48.1593805154       40.8150269879        1.9911186529  MEMB      168             0.0000000000
     19625       168  POPC      H12Y           48.8201420738       39.6285360713        0.8115669020  MEMB      168             0.0000000000
     19626       168  POPC      C313           49.7723979438       41.6699716953        0.9811216326  MEMB      168             0.0000000000
     19627       168  POPC      H13X           50.1251470523       42.3373394484        1.7962955516  MEMB      168             0.0000000000
     19628       168  POPC      H13Y           49.0416273137       42.2421702242        0.3704796362  MEMB      168             0.0000000000
     19629       168  POPC      C314           50.9504945148       41.2518872099        0.1115315256  MEMB      168             0.0000000000
     19630       168  POPC      H14X           50.4713251500       40.7114598957       -0.7326588802  MEMB      168             0.0000000000
     19631       168  POPC      H14Y           51.5004818578       40.5858482939        0.8102640514  MEMB      168             0.0000000000
     19632       168  POPC      C315           51.8192042526       42.3722363629       -0.4897198809  MEMB      168             0.0000000000
     19633       168  POPC      H15X           52.5385269289       41.7972655981       -1.1112541348  MEMB      168             0.0000000000
     19634       168  POPC      H15Y           52.3537904456       42.8500410194        0.3589498914  MEMB      168             0.0000000000
     19635       168  POPC      C316           51.1196347485       43.3994379778       -1.3475697634  MEMB      168             0.0000000000
     19636       168  POPC      H16X           50.3773258312       42.8306907812       -1.9474256529  MEMB      168             0.0000000000
     19637       168  POPC      H16Y           51.8516528606       43.8999029664       -2.0169017736  MEMB      168             0.0000000000
     19638       168  POPC      H16Z           50.6639781081       44.1044472090       -0.6197926635  MEMB      168             0.0000000000
     19639       169  POPC      N             -54.4991135599      -28.7768038710       20.2387509369  MEMB      169             0.0000000000
     19640       169  POPC      C12           -53.1261256247      -28.0754819620       20.4592233734  MEMB      169             0.0000000000
     19641       169  POPC      H12A          -52.5958185274      -28.4892769189       21.3041778780  MEMB      169             0.0000000000
     19642       169  POPC      H12B          -53.3976984670      -27.0616205361       20.7136501168  MEMB      169             0.0000000000
     19643       169  POPC      C13           -54.4246458533      -30.2101557476       19.7304667292  MEMB      169             0.0000000000
     19644       169  POPC      H13A          -53.5634198363      -30.2090500730       19.0787854513  MEMB      169             0.0000000000
     19645       169  POPC      H13B          -54.3966211464      -30.8944385983       20.5655545133  MEMB      169             0.0000000000
     19646       169  POPC      H13C          -55.3499016257      -30.4358335254       19.2211817878  MEMB      169             0.0000000000
     19647       169  POPC      C14           -55.3809023672      -28.8140665007       21.5041612761  MEMB      169             0.0000000000
     19648       169  POPC      H14A          -55.3164012964      -27.9207392394       22.1076563272  MEMB      169             0.0000000000
     19649       169  POPC      H14B          -56.4171883560      -28.9669306497       21.2412096994  MEMB      169             0.0000000000
     19650       169  POPC      H14C          -55.1219127550      -29.6624539171       22.1202483337  MEMB      169             0.0000000000
     19651       169  POPC      C15           -55.1283687528      -27.9166714750       19.1955993636  MEMB      169             0.0000000000
     19652       169  POPC      H15A          -55.5292687096      -26.9787257284       19.5504756385  MEMB      169             0.0000000000
     19653       169  POPC      H15B          -55.9382361124      -28.4912004598       18.7708273580  MEMB      169             0.0000000000
     19654       169  POPC      H15C          -54.3874941403      -27.7302027790       18.4322290936  MEMB      169             0.0000000000
     19655       169  POPC      C11           -52.1825620008      -27.9666982237       19.2410734079  MEMB      169             0.0000000000
     19656       169  POPC      H11A          -51.2594858757      -27.4148225256       19.5197930671  MEMB      169             0.0000000000
     19657       169  POPC      H11B          -52.5224056227      -27.4205798154       18.3352135749  MEMB      169             0.0000000000
     19658       169  POPC      P             -50.6729378836      -29.5533868683       17.7189469355  MEMB      169             0.0000000000
     19659       169  POPC      O13           -49.3256365254      -29.6027976980       18.3027477151  MEMB      169             0.0000000000
     19660       169  POPC      O14           -50.8890691609      -28.6207082876       16.5859892275  MEMB      169             0.0000000000
     19661       169  POPC      O12           -51.8431989271      -29.2844128678       18.8325875456  MEMB      169             0.0000000000
     19662       169  POPC      O11           -51.0911734574      -30.9938351095       17.1904534866  MEMB      169             0.0000000000
     19663       169  POPC      C1            -52.2749698668      -31.6442359167       17.6535180868  MEMB      169             0.0000000000
     19664       169  POPC      HA            -53.0916003790      -30.9335307779       17.4038506442  MEMB      169             0.0000000000
     19665       169  POPC      HB            -52.2604115333      -31.7569859650       18.7586861518  MEMB      169             0.0000000000
     19666       169  POPC      C2            -52.4467406210      -33.1400181773       16.9536364416  MEMB      169             0.0000000000
     19667       169  POPC      HS            -51.9765121000      -33.8527601699       17.6644141629  MEMB      169             0.0000000000
     19668       169  POPC      O21           -51.7878943521      -33.0114816138       15.6452525483  MEMB      169             0.0000000000
     19669       169  POPC      C21           -51.4671331953      -34.1526998262       15.0759148511  MEMB      169             0.0000000000
     19670       169  POPC      O22           -51.4659559363      -35.2653049834       15.5967577972  MEMB      169             0.0000000000
     19671       169  POPC      C22           -51.2298814420      -33.8024343477       13.5830238603  MEMB      169             0.0000000000
     19672       169  POPC      H2R           -50.2111021841      -33.3817990766       13.4434687752  MEMB      169             0.0000000000
     19673       169  POPC      H2S           -51.9476893108      -33.0037643809       13.2980691982  MEMB      169             0.0000000000
     19674       169  POPC      C3            -53.8662739403      -33.5461208970       16.6732363904  MEMB      169             0.0000000000
     19675       169  POPC      HX            -54.2689883303      -33.6706849633       17.7011594537  MEMB      169             0.0000000000
     19676       169  POPC      HY            -53.9334267628      -34.5325729980       16.1665568762  MEMB      169             0.0000000000
     19677       169  POPC      O31           -54.5955631409      -32.5143934949       16.0845753772  MEMB      169             0.0000000000
     19678       169  POPC      C31           -54.9052458891      -32.5785298300       14.8130338948  MEMB      169             0.0000000000
     19679       169  POPC      O32           -54.7448715240      -33.5085105205       14.0444825749  MEMB      169             0.0000000000
     19680       169  POPC      C32           -55.4420349888      -31.2249653063       14.3757526454  MEMB      169             0.0000000000
     19681       169  POPC      H2X           -54.7500770795      -30.3913323877       14.6218652804  MEMB      169             0.0000000000
     19682       169  POPC      H2Y           -56.4175845831      -31.1148127298       14.8958398428  MEMB      169             0.0000000000
     19683       169  POPC      C23           -51.3004454026      -35.0272684238       12.6830511072  MEMB      169             0.0000000000
     19684       169  POPC      H3R           -52.3606533206      -35.3583832329       12.6576841992  MEMB      169             0.0000000000
     19685       169  POPC      H3S           -50.7359434032      -35.8462533002       13.1779479836  MEMB      169             0.0000000000
     19686       169  POPC      C24           -50.9475955943      -34.7064711928       11.2095373915  MEMB      169             0.0000000000
     19687       169  POPC      H4R           -50.7220948486      -35.6781896304       10.7204221439  MEMB      169             0.0000000000
     19688       169  POPC      H4S           -50.0586944330      -34.0525758061       11.0807099649  MEMB      169             0.0000000000
     19689       169  POPC      C25           -52.0748808740      -34.0172238333       10.5117882298  MEMB      169             0.0000000000
     19690       169  POPC      H5R           -52.4660012948      -33.2396038883       11.2021888903  MEMB      169             0.0000000000
     19691       169  POPC      H5S           -52.8231840909      -34.7987254006       10.2595599857  MEMB      169             0.0000000000
     19692       169  POPC      C26           -51.6776718452      -33.4010817636        9.1391306948  MEMB      169             0.0000000000
     19693       169  POPC      H6R           -50.9286263149      -32.5898945715        9.2625288388  MEMB      169             0.0000000000
     19694       169  POPC      H6S           -52.6253181233      -32.8695702056        8.9072192828  MEMB      169             0.0000000000
     19695       169  POPC      C27           -51.2131003604      -34.4106060875        8.1314120391  MEMB      169             0.0000000000
     19696       169  POPC      H7R           -51.6337976248      -34.0907003951        7.1541738759  MEMB      169             0.0000000000
     19697       169  POPC      H7S           -51.7244757851      -35.3919640410        8.2301690655  MEMB      169             0.0000000000
     19698       169  POPC      C28           -49.7104005213      -34.6147527958        7.8854613843  MEMB      169             0.0000000000
     19699       169  POPC      H8R           -49.1525369074      -35.0250741991        8.7542220403  MEMB      169             0.0000000000
     19700       169  POPC      H8S           -49.2170350494      -33.6195693860        7.9083036137  MEMB      169             0.0000000000
     19701       169  POPC      C29           -49.4250972213      -35.3685922541        6.6741789471  MEMB      169             0.0000000000
     19702       169  POPC      H91           -49.4471011293      -36.4546047582        6.8476512189  MEMB      169             0.0000000000
     19703       169  POPC      C210          -49.2562460159      -34.9528140417        5.4291957896  MEMB      169             0.0000000000
     19704       169  POPC      H101          -49.0260046754      -35.7315568558        4.6872064415  MEMB      169             0.0000000000
     19705       169  POPC      C211          -49.2663135711      -33.5364010164        4.8009351702  MEMB      169             0.0000000000
     19706       169  POPC      H11R          -48.3276330114      -33.3621063962        4.2327617941  MEMB      169             0.0000000000
     19707       169  POPC      H11S          -49.2859990381      -32.7206077932        5.5548685799  MEMB      169             0.0000000000
     19708       169  POPC      C212          -50.5265160666      -33.2748359616        4.0357297467  MEMB      169             0.0000000000
     19709       169  POPC      H12R          -50.7085233429      -32.1788778341        4.0273409814  MEMB      169             0.0000000000
     19710       169  POPC      H12S          -51.3910919062      -33.6786599063        4.6047255240  MEMB      169             0.0000000000
     19711       169  POPC      C213          -50.5670849700      -33.7056920168        2.5655388311  MEMB      169             0.0000000000
     19712       169  POPC      H13R          -51.6071749776      -33.4465601232        2.2733326195  MEMB      169             0.0000000000
     19713       169  POPC      H13S          -50.5497271066      -34.8149796774        2.5063711847  MEMB      169             0.0000000000
     19714       169  POPC      C214          -49.6041525799      -33.2075527112        1.3856606100  MEMB      169             0.0000000000
     19715       169  POPC      H14R          -49.9377222469      -33.7501021522        0.4753353890  MEMB      169             0.0000000000
     19716       169  POPC      H14S          -48.5438308724      -33.4770627905        1.5790593424  MEMB      169             0.0000000000
     19717       169  POPC      C215          -49.6596712038      -31.6396031386        1.1578428472  MEMB      169             0.0000000000
     19718       169  POPC      H15R          -49.2578149187      -31.0646909249        2.0194171322  MEMB      169             0.0000000000
     19719       169  POPC      H15S          -50.6824385038      -31.2057440073        1.1637158024  MEMB      169             0.0000000000
     19720       169  POPC      C216          -48.9924341435      -31.1973366184       -0.1436489097  MEMB      169             0.0000000000
     19721       169  POPC      H16R          -48.0205109769      -31.7314494459       -0.2100544652  MEMB      169             0.0000000000
     19722       169  POPC      H16S          -48.7864330595      -30.1060969394       -0.1107867245  MEMB      169             0.0000000000
     19723       169  POPC      C217          -49.7523697844      -31.3371196663       -1.3634085002  MEMB      169             0.0000000000
     19724       169  POPC      H17R          -50.8510381668      -31.3021127101       -1.2020912296  MEMB      169             0.0000000000
     19725       169  POPC      H17S          -49.4777645193      -32.3202047408       -1.8021087044  MEMB      169             0.0000000000
     19726       169  POPC      C218          -49.3775855185      -30.2643263900       -2.3692088056  MEMB      169             0.0000000000
     19727       169  POPC      H18R          -49.5643264207      -29.2073448711       -2.0824328628  MEMB      169             0.0000000000
     19728       169  POPC      H18S          -49.8247136365      -30.4331521683       -3.3721512212  MEMB      169             0.0000000000
     19729       169  POPC      H18T          -48.2820410791      -30.3452873442       -2.5351882413  MEMB      169             0.0000000000
     19730       169  POPC      C33           -55.8097346457      -31.1610172965       12.9136539805  MEMB      169             0.0000000000
     19731       169  POPC      H3X           -56.5235670635      -30.3544789741       12.6411466821  MEMB      169             0.0000000000
     19732       169  POPC      H3Y           -56.3093938479      -32.1248058499       12.6774901787  MEMB      169             0.0000000000
     19733       169  POPC      C34           -54.6361356373      -30.9880324979       11.9029296829  MEMB      169             0.0000000000
     19734       169  POPC      H4X           -55.0179723436      -31.3912723124       10.9406825167  MEMB      169             0.0000000000
     19735       169  POPC      H4Y           -53.7564212003      -31.6272221795       12.1306574954  MEMB      169             0.0000000000
     19736       169  POPC      C35           -54.2902620260      -29.4997333203       11.6256873647  MEMB      169             0.0000000000
     19737       169  POPC      H5X           -54.0604652140      -29.0165438089       12.5993619012  MEMB      169             0.0000000000
     19738       169  POPC      H5Y           -55.1811677124      -29.0109586548       11.1765685386  MEMB      169             0.0000000000
     19739       169  POPC      C36           -53.0610220074      -29.3964357369       10.8200787195  MEMB      169             0.0000000000
     19740       169  POPC      H6X           -52.2810935241      -30.1324070561       11.1105589603  MEMB      169             0.0000000000
     19741       169  POPC      H6Y           -52.6316036976      -28.3844355606       10.9806293260  MEMB      169             0.0000000000
     19742       169  POPC      C37           -53.3624152354      -29.4887618119        9.3226964675  MEMB      169             0.0000000000
     19743       169  POPC      H7X           -54.4245705580      -29.1993738383        9.1730240394  MEMB      169             0.0000000000
     19744       169  POPC      H7Y           -53.2408638606      -30.5736698008        9.1164904186  MEMB      169             0.0000000000
     19745       169  POPC      C38           -52.3325005672      -28.6213626994        8.5538554263  MEMB      169             0.0000000000
     19746       169  POPC      H8X           -51.2992275659      -28.9214815944        8.8306159614  MEMB      169             0.0000000000
     19747       169  POPC      H8Y           -52.3425237728      -27.5552856611        8.8664251661  MEMB      169             0.0000000000
     19748       169  POPC      C39           -52.4637877730      -28.6168409250        7.0140873620  MEMB      169             0.0000000000
     19749       169  POPC      H9X           -51.6915802100      -27.9038129889        6.6540761698  MEMB      169             0.0000000000
     19750       169  POPC      H9Y           -53.5137050039      -28.3493395297        6.7682464376  MEMB      169             0.0000000000
     19751       169  POPC      C310          -52.2889635847      -29.9415839797        6.3296693730  MEMB      169             0.0000000000
     19752       169  POPC      H10X          -52.7866069129      -30.7268971041        6.9379093368  MEMB      169             0.0000000000
     19753       169  POPC      H10Y          -51.2035641677      -30.1690862197        6.3965417196  MEMB      169             0.0000000000
     19754       169  POPC      C311          -52.6892502860      -30.0943060544        4.8352411692  MEMB      169             0.0000000000
     19755       169  POPC      H11X          -52.3768429440      -31.0730221890        4.4123493333  MEMB      169             0.0000000000
     19756       169  POPC      H11Y          -52.1425130551      -29.4004697224        4.1614528973  MEMB      169             0.0000000000
     19757       169  POPC      C312          -54.1298947008      -29.8011177704        4.4253438910  MEMB      169             0.0000000000
     19758       169  POPC      H12X          -54.4732021884      -28.7980996592        4.7576324369  MEMB      169             0.0000000000
     19759       169  POPC      H12Y          -54.7871261813      -30.6413219553        4.7358669610  MEMB      169             0.0000000000
     19760       169  POPC      C313          -54.2212790713      -29.5087488492        2.9401891951  MEMB      169             0.0000000000
     19761       169  POPC      H13X          -53.4525846305      -28.8034350808        2.5581393179  MEMB      169             0.0000000000
     19762       169  POPC      H13Y          -55.2254547651      -29.0729024097        2.7504775941  MEMB      169             0.0000000000
     19763       169  POPC      C314          -53.8793408299      -30.7167374297        1.9398392975  MEMB      169             0.0000000000
     19764       169  POPC      H14X          -52.8356944904      -30.9669607884        2.2270875960  MEMB      169             0.0000000000
     19765       169  POPC      H14Y          -53.9791921896      -30.4618624256        0.8630903747  MEMB      169             0.0000000000
     19766       169  POPC      C315          -54.7506398551      -31.9664662975        2.1973075282  MEMB      169             0.0000000000
     19767       169  POPC      H15X          -55.8045555135      -31.6171670467        2.2369622219  MEMB      169             0.0000000000
     19768       169  POPC      H15Y          -54.4622355549      -32.4109391808        3.1738255593  MEMB      169             0.0000000000
     19769       169  POPC      C316          -54.4098441998      -33.0224373698        1.1245411823  MEMB      169             0.0000000000
     19770       169  POPC      H16X          -54.6614687083      -32.5758134122        0.1388778630  MEMB      169             0.0000000000
     19771       169  POPC      H16Y          -54.9046596564      -33.9988501139        1.3145328179  MEMB      169             0.0000000000
     19772       169  POPC      H16Z          -53.3189906647      -33.2330432092        1.1223824357  MEMB      169             0.0000000000
     19773       170  POPE      N              50.4086295583      -21.6685183779       16.8016769301  MEMB      170             0.0000000000
     19774       170  POPE      HN1            49.9783936621      -20.9912031208       16.1400567586  MEMB      170             0.0000000000
     19775       170  POPE      HN2            51.4270409035      -21.6422266118       16.5925187200  MEMB      170             0.0000000000
     19776       170  POPE      HN3            50.0721933052      -22.6269561776       16.5785007782  MEMB      170             0.0000000000
     19777       170  POPE      C12            50.1851831198      -21.2544266954       18.2047445809  MEMB      170             0.0000000000
     19778       170  POPE      H12A           49.1181483017      -21.3003462262       18.5107661627  MEMB      170             0.0000000000
     19779       170  POPE      H12B           50.4134442264      -20.1803778867       18.3739693520  MEMB      170             0.0000000000
     19780       170  POPE      C11            51.1296668068      -22.1260888410       19.0677823815  MEMB      170             0.0000000000
     19781       170  POPE      H11A           51.3681476506      -21.6428476325       20.0393409140  MEMB      170             0.0000000000
     19782       170  POPE      H11B           52.0387265688      -22.3274313363       18.4616533000  MEMB      170             0.0000000000
     19783       170  POPE      P              51.4388211218      -24.6858974090       19.6458950189  MEMB      170             0.0000000000
     19784       170  POPE      O13            50.4793672364      -25.7701919331       19.8325907644  MEMB      170             0.0000000000
     19785       170  POPE      O14            52.4250304810      -24.3578098211       20.6969740270  MEMB      170             0.0000000000
     19786       170  POPE      O11            52.2170608848      -24.9760238350       18.3231958157  MEMB      170             0.0000000000
     19787       170  POPE      O12            50.5757393629      -23.3738529060       19.4271404809  MEMB      170             0.0000000000
     19788       170  POPE      C1             51.4671160382      -25.2464251476       17.1928689390  MEMB      170             0.0000000000
     19789       170  POPE      HA             50.6435400169      -24.5476413380       16.9325907051  MEMB      170             0.0000000000
     19790       170  POPE      HB             51.1433941519      -26.3079230579       17.1404561141  MEMB      170             0.0000000000
     19791       170  POPE      C2             52.3770871373      -25.0698405214       15.9281458223  MEMB      170             0.0000000000
     19792       170  POPE      HS             53.2448962350      -25.7141018273       16.1853534095  MEMB      170             0.0000000000
     19793       170  POPE      O21            52.8037475609      -23.7055155979       15.6972860348  MEMB      170             0.0000000000
     19794       170  POPE      C21            54.1119924218      -23.5073757184       15.5914678534  MEMB      170             0.0000000000
     19795       170  POPE      O22            54.9773491983      -24.3836150213       15.6561270949  MEMB      170             0.0000000000
     19796       170  POPE      C22            54.3008079629      -22.1109718356       15.2177945742  MEMB      170             0.0000000000
     19797       170  POPE      H2R            54.5115867641      -21.5089783233       16.1274631854  MEMB      170             0.0000000000
     19798       170  POPE      H2S            53.4051156306      -21.7132716601       14.6944489390  MEMB      170             0.0000000000
     19799       170  POPE      C3             51.7942726842      -25.4843277840       14.6350241717  MEMB      170             0.0000000000
     19800       170  POPE      HX             51.5931946501      -26.5661137610       14.4813099580  MEMB      170             0.0000000000
     19801       170  POPE      HY             52.6324176905      -25.4480324745       13.9066582531  MEMB      170             0.0000000000
     19802       170  POPE      O31            50.7153019599      -24.5646991953       14.2581349318  MEMB      170             0.0000000000
     19803       170  POPE      C31            50.2587765483      -24.6286878074       13.0288414884  MEMB      170             0.0000000000
     19804       170  POPE      O32            50.6590835344      -25.4168156148       12.1802840903  MEMB      170             0.0000000000
     19805       170  POPE      C32            49.3173218241      -23.4772977681       12.7670089134  MEMB      170             0.0000000000
     19806       170  POPE      H2X            48.8466423241      -23.0761786586       13.6899853474  MEMB      170             0.0000000000
     19807       170  POPE      H2Y            48.4778686775      -23.8245872053       12.1274549913  MEMB      170             0.0000000000
     19808       170  POPE      C23            55.5495130344      -22.0742612343       14.2500045335  MEMB      170             0.0000000000
     19809       170  POPE      H3R            56.3715600103      -22.7222349253       14.6224153212  MEMB      170             0.0000000000
     19810       170  POPE      H3S            55.9711453970      -21.0481014921       14.1904778622  MEMB      170             0.0000000000
     19811       170  POPE      C24            55.1847254705      -22.6005359847       12.8532828176  MEMB      170             0.0000000000
     19812       170  POPE      H4R            54.6023023003      -23.5415206111       12.9515294967  MEMB      170             0.0000000000
     19813       170  POPE      H4S            56.1221001737      -22.9993609807       12.4099003234  MEMB      170             0.0000000000
     19814       170  POPE      C25            54.6069207513      -21.5075173130       11.9333403403  MEMB      170             0.0000000000
     19815       170  POPE      H5R            55.2633827337      -20.6146225657       11.8551241227  MEMB      170             0.0000000000
     19816       170  POPE      H5S            53.6009206533      -21.0978019424       12.1666172687  MEMB      170             0.0000000000
     19817       170  POPE      C26            54.5822600676      -22.1336064540       10.5100205041  MEMB      170             0.0000000000
     19818       170  POPE      H6R            55.5654993242      -22.5041119148       10.1490672849  MEMB      170             0.0000000000
     19819       170  POPE      H6S            54.3245131183      -21.2556261595        9.8799106901  MEMB      170             0.0000000000
     19820       170  POPE      C27            53.4410259728      -23.1552628111       10.0977317726  MEMB      170             0.0000000000
     19821       170  POPE      H7R            52.4856912996      -22.6986610867       10.4341416037  MEMB      170             0.0000000000
     19822       170  POPE      H7S            53.5744292774      -23.9546819314       10.8576356277  MEMB      170             0.0000000000
     19823       170  POPE      C28            53.3202489023      -23.4276703508        8.5582201260  MEMB      170             0.0000000000
     19824       170  POPE      H8R            54.2275953285      -23.9242344403        8.1526742881  MEMB      170             0.0000000000
     19825       170  POPE      H8S            53.2906091277      -22.3971503411        8.1441291083  MEMB      170             0.0000000000
     19826       170  POPE      C29            52.0858399407      -24.2870167378        8.3441272909  MEMB      170             0.0000000000
     19827       170  POPE      H91            51.9153527299      -25.1172670236        9.0452820171  MEMB      170             0.0000000000
     19828       170  POPE      C210           51.1389906302      -24.1411401253        7.3762482019  MEMB      170             0.0000000000
     19829       170  POPE      H101           50.2519191594      -24.7896610824        7.4264968972  MEMB      170             0.0000000000
     19830       170  POPE      C211           51.0666557290      -23.1330741272        6.2864023901  MEMB      170             0.0000000000
     19831       170  POPE      H11R           51.9569833231      -22.4692665634        6.2548230134  MEMB      170             0.0000000000
     19832       170  POPE      H11S           50.1304284849      -22.5409672268        6.3713079223  MEMB      170             0.0000000000
     19833       170  POPE      C212           51.0171856606      -23.8939653212        4.9336284553  MEMB      170             0.0000000000
     19834       170  POPE      H12R           49.9924479031      -24.2601138486        4.7096443821  MEMB      170             0.0000000000
     19835       170  POPE      H12S           51.5958058186      -24.8418813874        4.9648517598  MEMB      170             0.0000000000
     19836       170  POPE      C213           51.4668902370      -23.1383261604        3.6347764215  MEMB      170             0.0000000000
     19837       170  POPE      H13R           52.4940687814      -22.7266794170        3.7336310512  MEMB      170             0.0000000000
     19838       170  POPE      H13S           50.8086720925      -22.2834277095        3.3697884415  MEMB      170             0.0000000000
     19839       170  POPE      C214           51.3748880571      -24.0026434576        2.3463880204  MEMB      170             0.0000000000
     19840       170  POPE      H14R           50.2999059525      -24.2146260646        2.1625457343  MEMB      170             0.0000000000
     19841       170  POPE      H14S           52.0082569455      -24.8964719772        2.5314139712  MEMB      170             0.0000000000
     19842       170  POPE      C215           51.8802313905      -23.2574693387        1.0727614313  MEMB      170             0.0000000000
     19843       170  POPE      H15R           52.9849145496      -23.1995799287        1.1759368853  MEMB      170             0.0000000000
     19844       170  POPE      H15S           51.4240690179      -22.2477300076        1.1543907053  MEMB      170             0.0000000000
     19845       170  POPE      C216           51.6519215756      -24.0744023608       -0.2623849504  MEMB      170             0.0000000000
     19846       170  POPE      H16R           50.5738908999      -24.3293536550       -0.3470644355  MEMB      170             0.0000000000
     19847       170  POPE      H16S           52.2631888377      -24.9963633827       -0.1591343066  MEMB      170             0.0000000000
     19848       170  POPE      C217           51.9991692046      -23.0413795336       -1.4761960537  MEMB      170             0.0000000000
     19849       170  POPE      H17R           52.9519587016      -22.5651426809       -1.1604249071  MEMB      170             0.0000000000
     19850       170  POPE      H17S           51.1924303675      -22.2858318035       -1.5886272510  MEMB      170             0.0000000000
     19851       170  POPE      C218           52.1946284016      -23.6877910665       -2.7730956315  MEMB      170             0.0000000000
     19852       170  POPE      H18R           51.2785867491      -24.2048598821       -3.1306277782  MEMB      170             0.0000000000
     19853       170  POPE      H18S           52.9799021168      -24.4685327269       -2.8631411031  MEMB      170             0.0000000000
     19854       170  POPE      H18T           52.3878746822      -22.9195949298       -3.5521043238  MEMB      170             0.0000000000
     19855       170  POPE      C33            50.0524224104      -22.2733079521       12.1676685025  MEMB      170             0.0000000000
     19856       170  POPE      H3X            50.1553532867      -22.2976128874       11.0617141501  MEMB      170             0.0000000000
     19857       170  POPE      H3Y            51.0899114521      -22.1799403520       12.5539586856  MEMB      170             0.0000000000
     19858       170  POPE      C34            49.4271830013      -20.8767273822       12.6295299833  MEMB      170             0.0000000000
     19859       170  POPE      H4X            49.3035070590      -20.9076170699       13.7331924896  MEMB      170             0.0000000000
     19860       170  POPE      H4Y            48.3605903893      -20.7047660238       12.3704343471  MEMB      170             0.0000000000
     19861       170  POPE      C35            50.3002342023      -19.7001659605       12.1617829844  MEMB      170             0.0000000000
     19862       170  POPE      H5X            51.3110502277      -19.9563976492       12.5450813407  MEMB      170             0.0000000000
     19863       170  POPE      H5Y            49.9518665482      -18.7616567684       12.6436143896  MEMB      170             0.0000000000
     19864       170  POPE      C36            50.3610175517      -19.5803809860       10.5809487847  MEMB      170             0.0000000000
     19865       170  POPE      H6X            49.3848511083      -19.3201778591       10.1186561467  MEMB      170             0.0000000000
     19866       170  POPE      H6Y            50.6432525138      -20.5562662458       10.1311570226  MEMB      170             0.0000000000
     19867       170  POPE      C37            51.4977976097      -18.6878743499       10.1605866592  MEMB      170             0.0000000000
     19868       170  POPE      H7X            52.4031470596      -19.0976791050       10.6572991908  MEMB      170             0.0000000000
     19869       170  POPE      H7Y            51.2900592210      -17.6643997635       10.5396196527  MEMB      170             0.0000000000
     19870       170  POPE      C38            51.6845018317      -18.7038403963        8.6078903296  MEMB      170             0.0000000000
     19871       170  POPE      H8X            51.7709598784      -19.7711011316        8.3115781503  MEMB      170             0.0000000000
     19872       170  POPE      H8Y            52.6162784286      -18.2111824313        8.2566046996  MEMB      170             0.0000000000
     19873       170  POPE      C39            50.4561328812      -18.3177751841        7.6719701092  MEMB      170             0.0000000000
     19874       170  POPE      H9X            50.1412754737      -17.2547824463        7.7443054061  MEMB      170             0.0000000000
     19875       170  POPE      H9Y            49.5642587432      -18.9029949265        7.9824527354  MEMB      170             0.0000000000
     19876       170  POPE      C310           50.6538321448      -18.7162418421        6.1799766714  MEMB      170             0.0000000000
     19877       170  POPE      H10X           50.5001790151      -19.8089297483        6.0505741631  MEMB      170             0.0000000000
     19878       170  POPE      H10Y           51.6639300351      -18.4486176698        5.8026159714  MEMB      170             0.0000000000
     19879       170  POPE      C311           49.7223008985      -18.1231904219        5.1093021044  MEMB      170             0.0000000000
     19880       170  POPE      H11X           50.0858750322      -17.0806720333        4.9856495586  MEMB      170             0.0000000000
     19881       170  POPE      H11Y           48.7223307752      -18.1018772402        5.5929617231  MEMB      170             0.0000000000
     19882       170  POPE      C312           49.6590218307      -18.7908995807        3.7713294210  MEMB      170             0.0000000000
     19883       170  POPE      H12X           48.9643992948      -18.1710425010        3.1650303494  MEMB      170             0.0000000000
     19884       170  POPE      H12Y           49.2243827686      -19.8039369256        3.6328908828  MEMB      170             0.0000000000
     19885       170  POPE      C313           51.0428661466      -18.9916816972        3.1229813331  MEMB      170             0.0000000000
     19886       170  POPE      H13X           51.7351278046      -19.6041686261        3.7393863404  MEMB      170             0.0000000000
     19887       170  POPE      H13Y           51.4337531743      -17.9637889816        2.9649789289  MEMB      170             0.0000000000
     19888       170  POPE      C314           50.9398204284      -19.4768961745        1.6348932654  MEMB      170             0.0000000000
     19889       170  POPE      H14X           50.2096267209      -18.8366186001        1.0952803728  MEMB      170             0.0000000000
     19890       170  POPE      H14Y           50.4967963852      -20.4947340263        1.5895422103  MEMB      170             0.0000000000
     19891       170  POPE      C315           52.2263776442      -19.3454222603        0.8398631389  MEMB      170             0.0000000000
     19892       170  POPE      H15X           52.3337471315      -18.2892856192        0.5121925273  MEMB      170             0.0000000000
     19893       170  POPE      H15Y           51.9483653917      -20.0828091099        0.0567348074  MEMB      170             0.0000000000
     19894       170  POPE      C316           53.5959737026      -19.7696919722        1.5068484946  MEMB      170             0.0000000000
     19895       170  POPE      H16X           54.3519331466      -20.1149615637        0.7695317975  MEMB      170             0.0000000000
     19896       170  POPE      H16Y           53.3951331671      -20.5190852827        2.3020791484  MEMB      170             0.0000000000
     19897       170  POPE      H16Z           53.9578540853      -18.8505815702        2.0153749467  MEMB      170             0.0000000000
     19898       171  POPE      N              43.6954247656      -43.8154544347       20.4302085027  MEMB      171             0.0000000000
     19899       171  POPE      HN1            44.7037240509      -43.6642393718       20.6353098078  MEMB      171             0.0000000000
     19900       171  POPE      HN2            43.5161565450      -43.7554719371       19.4075329509  MEMB      171             0.0000000000
     19901       171  POPE      HN3            43.1121951857      -43.1933751236       21.0255743958  MEMB      171             0.0000000000
     19902       171  POPE      C12            43.2618424034      -45.2227415511       20.8135465685  MEMB      171             0.0000000000
     19903       171  POPE      H12A           43.4241397321      -45.3246433105       21.9078941416  MEMB      171             0.0000000000
     19904       171  POPE      H12B           43.8968742519      -45.9605326648       20.2780843153  MEMB      171             0.0000000000
     19905       171  POPE      C11            41.7692290767      -45.5117130841       20.5444299042  MEMB      171             0.0000000000
     19906       171  POPE      H11A           41.0122400558      -44.9845187441       21.1635862051  MEMB      171             0.0000000000
     19907       171  POPE      H11B           41.6323921362      -46.5831797053       20.8043452995  MEMB      171             0.0000000000
     19908       171  POPE      P              41.5624023246      -46.3820265607       18.0375506221  MEMB      171             0.0000000000
     19909       171  POPE      O13            40.2443854582      -46.9853876843       17.7766613830  MEMB      171             0.0000000000
     19910       171  POPE      O14            42.6615766256      -47.2270011952       18.5324874961  MEMB      171             0.0000000000
     19911       171  POPE      O11            42.1382178483      -45.7384123916       16.7202358368  MEMB      171             0.0000000000
     19912       171  POPE      O12            41.4278542613      -45.2500287100       19.1448796842  MEMB      171             0.0000000000
     19913       171  POPE      C1             43.4863411743      -45.2501178718       16.7622480147  MEMB      171             0.0000000000
     19914       171  POPE      HA             44.2811016369      -46.0062724694       16.5864437593  MEMB      171             0.0000000000
     19915       171  POPE      HB             43.6081477322      -44.7674577546       17.7554868820  MEMB      171             0.0000000000
     19916       171  POPE      C2             43.4868811255      -44.1397278752       15.6244964848  MEMB      171             0.0000000000
     19917       171  POPE      HS             44.4717227324      -43.6497755427       15.7805549441  MEMB      171             0.0000000000
     19918       171  POPE      O21            42.3778251021      -43.2264810373       15.8617505896  MEMB      171             0.0000000000
     19919       171  POPE      C21            42.4492485938      -42.3917525315       16.8856687060  MEMB      171             0.0000000000
     19920       171  POPE      O22            43.4456074297      -42.1757347064       17.6031942219  MEMB      171             0.0000000000
     19921       171  POPE      C22            41.2057614718      -41.6084771793       16.9412436325  MEMB      171             0.0000000000
     19922       171  POPE      H2R            41.4908495950      -40.6435919320       16.4700299696  MEMB      171             0.0000000000
     19923       171  POPE      H2S            40.8597359756      -41.4823614867       17.9894239605  MEMB      171             0.0000000000
     19924       171  POPE      C3             43.3980074802      -44.7993088068       14.1404294599  MEMB      171             0.0000000000
     19925       171  POPE      HX             44.2420430463      -45.5061404696       13.9910509704  MEMB      171             0.0000000000
     19926       171  POPE      HY             43.5060947046      -44.1312904609       13.2592998300  MEMB      171             0.0000000000
     19927       171  POPE      O31            42.1494364682      -45.5539542105       14.1838795451  MEMB      171             0.0000000000
     19928       171  POPE      C31            42.1045747786      -46.3364732032       13.1616010924  MEMB      171             0.0000000000
     19929       171  POPE      O32            42.9153906072      -46.4518405089       12.2942137258  MEMB      171             0.0000000000
     19930       171  POPE      C32            40.9944770346      -47.3222387496       13.3851144046  MEMB      171             0.0000000000
     19931       171  POPE      H2X            40.1861687173      -46.9088897697       12.7447230910  MEMB      171             0.0000000000
     19932       171  POPE      H2Y            40.6446969417      -47.6135825073       14.3985707673  MEMB      171             0.0000000000
     19933       171  POPE      C23            39.9591827459      -42.1005009863       16.2146736041  MEMB      171             0.0000000000
     19934       171  POPE      H3R            39.1789677116      -41.3579941009       16.4871964220  MEMB      171             0.0000000000
     19935       171  POPE      H3S            39.6728122559      -43.1320919265       16.5115461952  MEMB      171             0.0000000000
     19936       171  POPE      C24            39.9635008893      -42.0194537065       14.6231932427  MEMB      171             0.0000000000
     19937       171  POPE      H4R            40.8143113835      -42.6130780528       14.2256345249  MEMB      171             0.0000000000
     19938       171  POPE      H4S            40.1985498740      -40.9571824819       14.3981309159  MEMB      171             0.0000000000
     19939       171  POPE      C25            38.7192900265      -42.6835072899       14.1014565231  MEMB      171             0.0000000000
     19940       171  POPE      H5R            37.9598239574      -41.8770530093       14.1860941622  MEMB      171             0.0000000000
     19941       171  POPE      H5S            38.3994476840      -43.5672788582       14.6938836289  MEMB      171             0.0000000000
     19942       171  POPE      C26            38.8274860638      -43.1870749864       12.6293199699  MEMB      171             0.0000000000
     19943       171  POPE      H6R            39.6117984612      -43.9738533812       12.6169033285  MEMB      171             0.0000000000
     19944       171  POPE      H6S            39.1296756028      -42.3555854380       11.9572872811  MEMB      171             0.0000000000
     19945       171  POPE      C27            37.5896402408      -43.8358094188       11.9923299030  MEMB      171             0.0000000000
     19946       171  POPE      H7R            36.7668431851      -43.0913926214       12.0486264596  MEMB      171             0.0000000000
     19947       171  POPE      H7S            37.4145147431      -44.6250804198       12.7543687236  MEMB      171             0.0000000000
     19948       171  POPE      C28            37.8466175870      -44.3665991346       10.5950259536  MEMB      171             0.0000000000
     19949       171  POPE      H8R            38.1232433644      -43.4526883493       10.0270771569  MEMB      171             0.0000000000
     19950       171  POPE      H8S            36.8981863330      -44.7155950045       10.1335067028  MEMB      171             0.0000000000
     19951       171  POPE      C29            38.9961325809      -45.3494439002       10.4206733837  MEMB      171             0.0000000000
     19952       171  POPE      H91            39.9039577215      -45.1430900214       11.0065677073  MEMB      171             0.0000000000
     19953       171  POPE      C210           39.0910894258      -46.3476258962        9.6130664475  MEMB      171             0.0000000000
     19954       171  POPE      H101           40.0529788013      -46.8812354814        9.6185131522  MEMB      171             0.0000000000
     19955       171  POPE      C211           38.0950941346      -46.8665025719        8.6263439273  MEMB      171             0.0000000000
     19956       171  POPE      H11R           37.1204133629      -46.3741955587        8.8311667202  MEMB      171             0.0000000000
     19957       171  POPE      H11S           37.8365593181      -47.9460968404        8.5821087646  MEMB      171             0.0000000000
     19958       171  POPE      C212           38.6769994070      -46.4605712028        7.2061090532  MEMB      171             0.0000000000
     19959       171  POPE      H12R           39.6732204268      -46.9279448260        7.0530514680  MEMB      171             0.0000000000
     19960       171  POPE      H12S           38.8328293878      -45.3742873206        7.0328307773  MEMB      171             0.0000000000
     19961       171  POPE      C213           37.7198796459      -46.8652302064        6.0901765383  MEMB      171             0.0000000000
     19962       171  POPE      H13R           38.0036864469      -46.2142019111        5.2358134708  MEMB      171             0.0000000000
     19963       171  POPE      H13S           36.6399214362      -46.6635883479        6.2555598581  MEMB      171             0.0000000000
     19964       171  POPE      C214           38.0461812665      -48.2989213006        5.7388101594  MEMB      171             0.0000000000
     19965       171  POPE      H14R           37.8213290908      -48.9871904031        6.5814540598  MEMB      171             0.0000000000
     19966       171  POPE      H14S           39.1371165197      -48.5073614700        5.7117160363  MEMB      171             0.0000000000
     19967       171  POPE      C215           37.4252140604      -48.7222578510        4.4051099831  MEMB      171             0.0000000000
     19968       171  POPE      H15R           37.5738217484      -47.9915939469        3.5814795709  MEMB      171             0.0000000000
     19969       171  POPE      H15S           36.3539169895      -48.9200421247        4.6231114883  MEMB      171             0.0000000000
     19970       171  POPE      C216           37.9796139325      -50.0557829853        3.8504443471  MEMB      171             0.0000000000
     19971       171  POPE      H16R           37.4782157038      -50.3855542487        2.9154737232  MEMB      171             0.0000000000
     19972       171  POPE      H16S           37.8436012003      -50.8446301256        4.6208613221  MEMB      171             0.0000000000
     19973       171  POPE      C217           39.4947484475      -50.0794993220        3.4747736415  MEMB      171             0.0000000000
     19974       171  POPE      H17R           39.6590746378      -51.1387876808        3.1828389867  MEMB      171             0.0000000000
     19975       171  POPE      H17S           40.1381718035      -49.9957233275        4.3766105576  MEMB      171             0.0000000000
     19976       171  POPE      C218           40.0921336586      -49.2958664979        2.2813213100  MEMB      171             0.0000000000
     19977       171  POPE      H18R           39.3998593791      -49.3779977538        1.4162601108  MEMB      171             0.0000000000
     19978       171  POPE      H18S           41.0508954938      -49.7710631614        1.9825155110  MEMB      171             0.0000000000
     19979       171  POPE      H18T           40.3045317863      -48.2413923362        2.5593373043  MEMB      171             0.0000000000
     19980       171  POPE      C33            41.4574570255      -48.7054102585       12.7084816995  MEMB      171             0.0000000000
     19981       171  POPE      H3X            42.1994889968      -49.2143680707       13.3601501469  MEMB      171             0.0000000000
     19982       171  POPE      H3Y            42.1015208731      -48.5320827499       11.8199656814  MEMB      171             0.0000000000
     19983       171  POPE      C34            40.3465388851      -49.7908208559       12.2741235888  MEMB      171             0.0000000000
     19984       171  POPE      H4X            39.6352373470      -49.2623852250       11.6039541931  MEMB      171             0.0000000000
     19985       171  POPE      H4Y            39.6758738684      -49.9950527933       13.1359928266  MEMB      171             0.0000000000
     19986       171  POPE      C35            40.7921165738      -51.1446759472       11.6898428171  MEMB      171             0.0000000000
     19987       171  POPE      H5X            39.9521585850      -51.8555992265       11.5369378066  MEMB      171             0.0000000000
     19988       171  POPE      H5Y            41.5680967686      -51.4696115095       12.4155101925  MEMB      171             0.0000000000
     19989       171  POPE      C36            41.4654407969      -50.9596708145       10.2826622167  MEMB      171             0.0000000000
     19990       171  POPE      H6X            41.6017762315      -52.0045413585        9.9305549579  MEMB      171             0.0000000000
     19991       171  POPE      H6Y            42.5098661975      -50.5844044878       10.3343488342  MEMB      171             0.0000000000
     19992       171  POPE      C37            40.5958934708      -50.0684602511        9.3607607359  MEMB      171             0.0000000000
     19993       171  POPE      H7X            40.7140001386      -49.0538918321        9.7978221866  MEMB      171             0.0000000000
     19994       171  POPE      H7Y            39.5355003954      -50.3927556621        9.4294633980  MEMB      171             0.0000000000
     19995       171  POPE      C38            41.0223786200      -50.0292456318        7.9298025282  MEMB      171             0.0000000000
     19996       171  POPE      H8X            40.3719794470      -49.4437057536        7.2453722663  MEMB      171             0.0000000000
     19997       171  POPE      H8Y            40.7376020165      -51.0038923781        7.4789285733  MEMB      171             0.0000000000
     19998       171  POPE      C39            42.4511653321      -49.5901849415        7.5705495901  MEMB      171             0.0000000000
     19999       171  POPE      H9X            42.5706899469      -49.8748092633        6.5032996129  MEMB      171             0.0000000000
     20000       171  POPE      H9Y            43.2384403180      -50.0620274304        8.1965563795  MEMB      171             0.0000000000
     20001       171  POPE      C310           42.6001959423      -48.0927794285        7.7036932440  MEMB      171             0.0000000000
     20002       171  POPE      H10X           42.4723096206      -47.8199169351        8.7730444683  MEMB      171             0.0000000000
     20003       171  POPE      H10Y           41.8007340726      -47.5946649394        7.1145721461  MEMB      171             0.0000000000
     20004       171  POPE      C311           43.9483263963      -47.5752012622        7.1759330805  MEMB      171             0.0000000000
     20005       171  POPE      H11X           44.6418607726      -48.3239793286        7.6148670209  MEMB      171             0.0000000000
     20006       171  POPE      H11Y           44.1749538158      -46.6104902253        7.6782223731  MEMB      171             0.0000000000
     20007       171  POPE      C312           44.1779231196      -47.4395101811        5.6550747650  MEMB      171             0.0000000000
     20008       171  POPE      H12X           44.0167619375      -48.3817579550        5.0889322914  MEMB      171             0.0000000000
     20009       171  POPE      H12Y           45.2565854553      -47.1867173629        5.5719851087  MEMB      171             0.0000000000
     20010       171  POPE      C313           43.2328424580      -46.3023695618        5.0891374705  MEMB      171             0.0000000000
     20011       171  POPE      H13X           43.3780362862      -45.4166517625        5.7439225138  MEMB      171             0.0000000000
     20012       171  POPE      H13Y           42.2329659901      -46.7814976094        5.1598795286  MEMB      171             0.0000000000
     20013       171  POPE      C314           43.5810387043      -45.9742442239        3.7232227470  MEMB      171             0.0000000000
     20014       171  POPE      H14X           43.2997142839      -46.8275265704        3.0697041213  MEMB      171             0.0000000000
     20015       171  POPE      H14Y           44.6443021264      -45.8323846037        3.4339697433  MEMB      171             0.0000000000
     20016       171  POPE      C315           42.9090880304      -44.7201427791        3.1814489128  MEMB      171             0.0000000000
     20017       171  POPE      H15X           43.1984145817      -43.8562146069        3.8172466762  MEMB      171             0.0000000000
     20018       171  POPE      H15Y           41.8230582121      -44.8940374665        3.3383592526  MEMB      171             0.0000000000
     20019       171  POPE      C316           43.1835200821      -44.3098324846        1.7262622734  MEMB      171             0.0000000000
     20020       171  POPE      H16X           42.8806045043      -45.1449089836        1.0590198402  MEMB      171             0.0000000000
     20021       171  POPE      H16Y           44.2704445356      -44.1148576344        1.6041921028  MEMB      171             0.0000000000
     20022       171  POPE      H16Z           42.5543801409      -43.4255972159        1.4882873127  MEMB      171             0.0000000000
     20023       172  POPC      N             -47.0647857819      -44.4311598764       19.7497753298  MEMB      172             0.0000000000
     20024       172  POPC      C12           -45.6082183741      -44.2760512397       19.3561999769  MEMB      172             0.0000000000
     20025       172  POPC      H12A          -45.1426194030      -45.2072315100       19.0689353495  MEMB      172             0.0000000000
     20026       172  POPC      H12B          -44.9607418056      -43.9916466218       20.1724646803  MEMB      172             0.0000000000
     20027       172  POPC      C13           -47.8624566679      -44.7277951878       18.4884985010  MEMB      172             0.0000000000
     20028       172  POPC      H13A          -48.9086493526      -44.8425269064       18.7308159664  MEMB      172             0.0000000000
     20029       172  POPC      H13B          -47.6705380981      -44.0713995008       17.6526085225  MEMB      172             0.0000000000
     20030       172  POPC      H13C          -47.5561365026      -45.6838506877       18.0903453897  MEMB      172             0.0000000000
     20031       172  POPC      C14           -47.1947154763      -45.5670103645       20.7863146507  MEMB      172             0.0000000000
     20032       172  POPC      H14A          -46.6402563664      -46.4309713135       20.4508353089  MEMB      172             0.0000000000
     20033       172  POPC      H14B          -46.6990298524      -45.2611333815       21.6957844913  MEMB      172             0.0000000000
     20034       172  POPC      H14C          -48.2555777597      -45.7430420062       20.8862350851  MEMB      172             0.0000000000
     20035       172  POPC      C15           -47.4652490801      -43.1356589925       20.3022047482  MEMB      172             0.0000000000
     20036       172  POPC      H15A          -48.5328931811      -43.0784195731       20.4547157824  MEMB      172             0.0000000000
     20037       172  POPC      H15B          -47.2681028367      -42.3648089445       19.5719146989  MEMB      172             0.0000000000
     20038       172  POPC      H15C          -46.9343891776      -43.0896757413       21.2416052306  MEMB      172             0.0000000000
     20039       172  POPC      C11           -45.2176152310      -43.3345843953       18.1714305413  MEMB      172             0.0000000000
     20040       172  POPC      H11A          -45.6419815209      -43.6932590785       17.2093563954  MEMB      172             0.0000000000
     20041       172  POPC      H11B          -44.1393549058      -43.5269444035       17.9852230055  MEMB      172             0.0000000000
     20042       172  POPC      P             -44.4135807743      -40.8350352837       18.4377456101  MEMB      172             0.0000000000
     20043       172  POPC      O13           -43.4199484269      -41.1202440164       17.3287343389  MEMB      172             0.0000000000
     20044       172  POPC      O14           -43.8123275493      -40.9315684288       19.8061524124  MEMB      172             0.0000000000
     20045       172  POPC      O12           -45.4505691953      -41.9359489393       18.3188342855  MEMB      172             0.0000000000
     20046       172  POPC      O11           -45.1863083497      -39.4785530964       18.2541096354  MEMB      172             0.0000000000
     20047       172  POPC      C1            -46.5801674213      -39.3368776886       18.4668074978  MEMB      172             0.0000000000
     20048       172  POPC      HA            -46.6792764643      -38.4025927867       19.0597744837  MEMB      172             0.0000000000
     20049       172  POPC      HB            -47.1087626122      -40.1814963861       18.9582620798  MEMB      172             0.0000000000
     20050       172  POPC      C2            -47.2679653515      -38.9058498359       17.1183763425  MEMB      172             0.0000000000
     20051       172  POPC      HS            -48.2056209790      -38.4422812427       17.4928455067  MEMB      172             0.0000000000
     20052       172  POPC      O21           -47.6058852881      -39.9906834893       16.2356912121  MEMB      172             0.0000000000
     20053       172  POPC      C21           -48.1571687896      -41.1758232870       16.6126508814  MEMB      172             0.0000000000
     20054       172  POPC      O22           -48.6752874573      -41.3728357258       17.6875763371  MEMB      172             0.0000000000
     20055       172  POPC      C22           -48.0925572560      -42.1597342519       15.4554888806  MEMB      172             0.0000000000
     20056       172  POPC      H2R           -48.3919221844      -43.1565783227       15.8440803742  MEMB      172             0.0000000000
     20057       172  POPC      H2S           -47.0700099090      -42.3293724166       15.0555628818  MEMB      172             0.0000000000
     20058       172  POPC      C3            -46.4149757480      -37.9032564069       16.3178894155  MEMB      172             0.0000000000
     20059       172  POPC      HX            -46.0621126929      -37.0903161741       16.9879170796  MEMB      172             0.0000000000
     20060       172  POPC      HY            -47.1621761586      -37.5336104173       15.5834681709  MEMB      172             0.0000000000
     20061       172  POPC      O31           -45.3465876763      -38.5894204410       15.6969092072  MEMB      172             0.0000000000
     20062       172  POPC      C31           -45.3021031376      -38.6726088165       14.4490005373  MEMB      172             0.0000000000
     20063       172  POPC      O32           -46.1252460815      -38.2766688523       13.6436719992  MEMB      172             0.0000000000
     20064       172  POPC      C32           -44.0675405682      -39.4188516184       14.0325561246  MEMB      172             0.0000000000
     20065       172  POPC      H2X           -43.7737160841      -40.2434485986       14.7166819172  MEMB      172             0.0000000000
     20066       172  POPC      H2Y           -43.1965568050      -38.7307008469       14.0790001312  MEMB      172             0.0000000000
     20067       172  POPC      C23           -49.1047919885      -41.8375515741       14.3182286715  MEMB      172             0.0000000000
     20068       172  POPC      H3R           -50.0557014330      -41.3999549057       14.6905198937  MEMB      172             0.0000000000
     20069       172  POPC      H3S           -49.3679893438      -42.7909386042       13.8121639484  MEMB      172             0.0000000000
     20070       172  POPC      C24           -48.4958948238      -40.8750247181       13.2308606208  MEMB      172             0.0000000000
     20071       172  POPC      H4R           -47.5591396118      -41.2607954694       12.7747993416  MEMB      172             0.0000000000
     20072       172  POPC      H4S           -48.2097790976      -39.9045947540       13.6899079911  MEMB      172             0.0000000000
     20073       172  POPC      C25           -49.4765157093      -40.3591833954       12.1358846039  MEMB      172             0.0000000000
     20074       172  POPC      H5R           -49.0098908622      -39.5237864780       11.5713546575  MEMB      172             0.0000000000
     20075       172  POPC      H5S           -50.3491153809      -39.9394025051       12.6805628660  MEMB      172             0.0000000000
     20076       172  POPC      C26           -50.0270669568      -41.4446377271       11.1922199797  MEMB      172             0.0000000000
     20077       172  POPC      H6R           -50.9048125995      -40.9055950167       10.7759068509  MEMB      172             0.0000000000
     20078       172  POPC      H6S           -50.3973795457      -42.3404875433       11.7350299942  MEMB      172             0.0000000000
     20079       172  POPC      C27           -49.0284588752      -41.7376337508        9.9971491927  MEMB      172             0.0000000000
     20080       172  POPC      H7R           -48.1418251832      -42.0588549448       10.5845323282  MEMB      172             0.0000000000
     20081       172  POPC      H7S           -48.7771063781      -40.9391304164        9.2667142411  MEMB      172             0.0000000000
     20082       172  POPC      C28           -49.5633030586      -42.8933992549        9.1493176761  MEMB      172             0.0000000000
     20083       172  POPC      H8R           -49.9207646333      -43.7038551902        9.8199168640  MEMB      172             0.0000000000
     20084       172  POPC      H8S           -48.6373481934      -43.2810987935        8.6732735678  MEMB      172             0.0000000000
     20085       172  POPC      C29           -50.6163839112      -42.4261922478        8.1825304334  MEMB      172             0.0000000000
     20086       172  POPC      H91           -51.6580000109      -42.6791839960        8.4295748955  MEMB      172             0.0000000000
     20087       172  POPC      C210          -50.4726572445      -41.7081519168        6.9890707657  MEMB      172             0.0000000000
     20088       172  POPC      H101          -51.3864765827      -41.5151273254        6.4079719141  MEMB      172             0.0000000000
     20089       172  POPC      C211          -49.1047869910      -41.2407239434        6.3829456823  MEMB      172             0.0000000000
     20090       172  POPC      H11R          -48.2868992054      -41.8951819505        6.7531681473  MEMB      172             0.0000000000
     20091       172  POPC      H11S          -48.7641843642      -40.2218974477        6.6663238716  MEMB      172             0.0000000000
     20092       172  POPC      C212          -49.1752304461      -41.5202515546        4.8670020566  MEMB      172             0.0000000000
     20093       172  POPC      H12R          -49.5467989635      -42.5557136318        4.7118367397  MEMB      172             0.0000000000
     20094       172  POPC      H12S          -48.1839793595      -41.5144157912        4.3652961999  MEMB      172             0.0000000000
     20095       172  POPC      C213          -50.0486394483      -40.4931729117        4.0345157105  MEMB      172             0.0000000000
     20096       172  POPC      H13R          -51.1265882926      -40.4751988671        4.3028882836  MEMB      172             0.0000000000
     20097       172  POPC      H13S          -50.0292123937      -40.8853332181        2.9952115941  MEMB      172             0.0000000000
     20098       172  POPC      C214          -49.6400301721      -39.0171876939        4.1277780202  MEMB      172             0.0000000000
     20099       172  POPC      H14R          -49.3814309846      -38.7323549568        5.1700427890  MEMB      172             0.0000000000
     20100       172  POPC      H14S          -50.4642693331      -38.3447825137        3.8071189065  MEMB      172             0.0000000000
     20101       172  POPC      C215          -48.3715068516      -38.7655295973        3.2220077267  MEMB      172             0.0000000000
     20102       172  POPC      H15R          -48.6736874296      -38.9757894096        2.1737732562  MEMB      172             0.0000000000
     20103       172  POPC      H15S          -47.4981447794      -39.3654610946        3.5561375391  MEMB      172             0.0000000000
     20104       172  POPC      C216          -47.8424317307      -37.2864012188        3.3938517344  MEMB      172             0.0000000000
     20105       172  POPC      H16R          -47.8137977776      -37.0463440090        4.4782285853  MEMB      172             0.0000000000
     20106       172  POPC      H16S          -48.6096062972      -36.6579740926        2.8930082698  MEMB      172             0.0000000000
     20107       172  POPC      C217          -46.5197582387      -36.9910395117        2.7202535059  MEMB      172             0.0000000000
     20108       172  POPC      H17R          -45.7217508168      -37.6753707795        3.0796902987  MEMB      172             0.0000000000
     20109       172  POPC      H17S          -46.3695964726      -35.9167510836        2.9604141566  MEMB      172             0.0000000000
     20110       172  POPC      C218          -46.3177132154      -37.0410017190        1.1876346889  MEMB      172             0.0000000000
     20111       172  POPC      H18R          -46.9160944699      -36.1738015990        0.8351783899  MEMB      172             0.0000000000
     20112       172  POPC      H18S          -46.5300184321      -38.0114489897        0.6901622225  MEMB      172             0.0000000000
     20113       172  POPC      H18T          -45.2561518182      -36.9476795114        0.8734701038  MEMB      172             0.0000000000
     20114       172  POPC      C33           -44.2007414843      -40.0023258887       12.6300547891  MEMB      172             0.0000000000
     20115       172  POPC      H3X           -44.1242434061      -39.1622047279       11.9070984834  MEMB      172             0.0000000000
     20116       172  POPC      H3Y           -45.1344060498      -40.5809165255       12.4632488245  MEMB      172             0.0000000000
     20117       172  POPC      C34           -43.0446596494      -41.0085214680       12.3817271033  MEMB      172             0.0000000000
     20118       172  POPC      H4X           -43.1764576315      -41.7837405201       13.1665748241  MEMB      172             0.0000000000
     20119       172  POPC      H4Y           -42.0693019297      -40.5001261017       12.5383556422  MEMB      172             0.0000000000
     20120       172  POPC      C35           -43.1092702763      -41.4576341474       10.9138279945  MEMB      172             0.0000000000
     20121       172  POPC      H5X           -44.1848608921      -41.4244229781       10.6375625277  MEMB      172             0.0000000000
     20122       172  POPC      H5Y           -42.7183827315      -42.4962976238       10.9658477427  MEMB      172             0.0000000000
     20123       172  POPC      C36           -42.2728797028      -40.4027517964       10.0526091363  MEMB      172             0.0000000000
     20124       172  POPC      H6X           -41.2177702247      -40.4393068817       10.3986290120  MEMB      172             0.0000000000
     20125       172  POPC      H6Y           -42.5437332372      -39.3486409185       10.2757894975  MEMB      172             0.0000000000
     20126       172  POPC      C37           -42.3160059734      -40.6067061083        8.4667035454  MEMB      172             0.0000000000
     20127       172  POPC      H7X           -41.7859896641      -41.5472851840        8.2045688139  MEMB      172             0.0000000000
     20128       172  POPC      H7Y           -41.7775382376      -39.7458210603        8.0158706914  MEMB      172             0.0000000000
     20129       172  POPC      C38           -43.6802311269      -40.6585985905        7.8894453885  MEMB      172             0.0000000000
     20130       172  POPC      H8X           -44.3512489819      -39.8163372129        8.1626700412  MEMB      172             0.0000000000
     20131       172  POPC      H8Y           -44.0594030556      -41.5716773053        8.3962360867  MEMB      172             0.0000000000
     20132       172  POPC      C39           -43.6526946501      -40.9239319463        6.4616390840  MEMB      172             0.0000000000
     20133       172  POPC      H9X           -43.2265275661      -41.9079163314        6.1709891927  MEMB      172             0.0000000000
     20134       172  POPC      H9Y           -42.8593994150      -40.2276832082        6.1148802780  MEMB      172             0.0000000000
     20135       172  POPC      C310          -44.9348532481      -40.7125808733        5.7504578089  MEMB      172             0.0000000000
     20136       172  POPC      H10X          -45.1552602894      -39.6236636681        5.7514711110  MEMB      172             0.0000000000
     20137       172  POPC      H10Y          -45.7719912147      -41.1868244540        6.3059883945  MEMB      172             0.0000000000
     20138       172  POPC      C311          -44.8558889351      -41.2085841576        4.3901577768  MEMB      172             0.0000000000
     20139       172  POPC      H11X          -43.9157208496      -40.8916043332        3.8902286616  MEMB      172             0.0000000000
     20140       172  POPC      H11Y          -45.7387105213      -40.8830141650        3.7994361891  MEMB      172             0.0000000000
     20141       172  POPC      C312          -44.9189645884      -42.7520148746        4.2095185372  MEMB      172             0.0000000000
     20142       172  POPC      H12X          -45.9460908743      -43.1028272003        4.4467168453  MEMB      172             0.0000000000
     20143       172  POPC      H12Y          -44.2100429898      -43.2690707000        4.8909907151  MEMB      172             0.0000000000
     20144       172  POPC      C313          -44.5448340322      -43.2832206009        2.8828934694  MEMB      172             0.0000000000
     20145       172  POPC      H13X          -43.4552968287      -43.1013749555        2.7638899562  MEMB      172             0.0000000000
     20146       172  POPC      H13Y          -45.2526190231      -42.8421198288        2.1488704309  MEMB      172             0.0000000000
     20147       172  POPC      C314          -44.6956313155      -44.7876445491        2.6986417343  MEMB      172             0.0000000000
     20148       172  POPC      H14X          -45.5794218517      -45.0053832502        2.0615978373  MEMB      172             0.0000000000
     20149       172  POPC      H14Y          -44.7254589127      -45.2387033886        3.7135194058  MEMB      172             0.0000000000
     20150       172  POPC      C315          -43.4572181382      -45.3701859264        1.9393569427  MEMB      172             0.0000000000
     20151       172  POPC      H15X          -43.6746173608      -46.4538792106        1.8268082974  MEMB      172             0.0000000000
     20152       172  POPC      H15Y          -42.5210540960      -45.2896333834        2.5321712382  MEMB      172             0.0000000000
     20153       172  POPC      C316          -43.2085129925      -44.8387963265        0.4774234605  MEMB      172             0.0000000000
     20154       172  POPC      H16X          -42.3742113784      -45.3595474661       -0.0393754548  MEMB      172             0.0000000000
     20155       172  POPC      H16Y          -42.8978393255      -43.7721206781        0.4750351863  MEMB      172             0.0000000000
     20156       172  POPC      H16Z          -44.1428210591      -45.0195910236       -0.0959025552  MEMB      172             0.0000000000
     20157       173  POPC      N              49.2023650315       50.9179140393       20.8960923301  MEMB      173             0.0000000000
     20158       173  POPC      C12            48.3507275146       51.8891011927       20.0340244740  MEMB      173             0.0000000000
     20159       173  POPC      H12A           49.0724736593       52.1149129619       19.2629917439  MEMB      173             0.0000000000
     20160       173  POPC      H12B           48.0554154663       52.7715771564       20.5821365314  MEMB      173             0.0000000000
     20161       173  POPC      C13            49.9509252771       49.9107784504       19.9432743367  MEMB      173             0.0000000000
     20162       173  POPC      H13A           50.3743209393       50.4461724152       19.1063218372  MEMB      173             0.0000000000
     20163       173  POPC      H13B           50.6963505057       49.4783405214       20.5942265566  MEMB      173             0.0000000000
     20164       173  POPC      H13C           49.1259051712       49.2661052542       19.6784377674  MEMB      173             0.0000000000
     20165       173  POPC      C14            50.2792157462       51.8676631185       21.5183578437  MEMB      173             0.0000000000
     20166       173  POPC      H14A           49.7880957192       52.6774009076       22.0375165549  MEMB      173             0.0000000000
     20167       173  POPC      H14B           50.8335931242       51.2915571135       22.2444209051  MEMB      173             0.0000000000
     20168       173  POPC      H14C           50.9197086109       52.3297345708       20.7817042066  MEMB      173             0.0000000000
     20169       173  POPC      C15            48.4840795794       50.2161922695       21.9433631536  MEMB      173             0.0000000000
     20170       173  POPC      H15A           47.5349051612       49.7881877200       21.6565181080  MEMB      173             0.0000000000
     20171       173  POPC      H15B           48.1846962156       50.8654458160       22.7528316738  MEMB      173             0.0000000000
     20172       173  POPC      H15C           49.1721512572       49.4706957681       22.3137575620  MEMB      173             0.0000000000
     20173       173  POPC      C11            47.0822577583       51.3301403210       19.3718959624  MEMB      173             0.0000000000
     20174       173  POPC      H11A           46.6865107622       52.1948840987       18.7975062049  MEMB      173             0.0000000000
     20175       173  POPC      H11B           46.2165864281       51.1598854106       20.0471347597  MEMB      173             0.0000000000
     20176       173  POPC      P              47.4836440982       50.3438416501       17.0036641659  MEMB      173             0.0000000000
     20177       173  POPC      O13            48.0700935017       49.1189819622       16.4471592598  MEMB      173             0.0000000000
     20178       173  POPC      O14            48.2283437566       51.6183283589       16.6993716195  MEMB      173             0.0000000000
     20179       173  POPC      O12            47.3443390962       50.1665156945       18.6128572303  MEMB      173             0.0000000000
     20180       173  POPC      O11            46.0256065882       50.4786975757       16.5299396241  MEMB      173             0.0000000000
     20181       173  POPC      C1             44.9920176009       49.5349326234       16.8252162256  MEMB      173             0.0000000000
     20182       173  POPC      HA             44.1653012690       49.9342995805       17.4508096334  MEMB      173             0.0000000000
     20183       173  POPC      HB             45.4607055662       48.6307560015       17.2691949550  MEMB      173             0.0000000000
     20184       173  POPC      C2             44.4624566305       49.0016854235       15.4971336777  MEMB      173             0.0000000000
     20185       173  POPC      HS             43.7932184918       48.1269445030       15.6429760999  MEMB      173             0.0000000000
     20186       173  POPC      O21            45.5674772274       48.7130078633       14.6584807616  MEMB      173             0.0000000000
     20187       173  POPC      C21            45.4134793396       47.8149241271       13.7402522449  MEMB      173             0.0000000000
     20188       173  POPC      O22            44.3897482390       47.1654412873       13.4769692936  MEMB      173             0.0000000000
     20189       173  POPC      C22            46.7463646275       47.7587789374       13.0497866481  MEMB      173             0.0000000000
     20190       173  POPC      H2R            47.4815426835       47.2772564502       13.7294708918  MEMB      173             0.0000000000
     20191       173  POPC      H2S            47.0899566516       48.8108317491       12.9525730851  MEMB      173             0.0000000000
     20192       173  POPC      C3             43.5982338892       50.0443379081       14.7165673387  MEMB      173             0.0000000000
     20193       173  POPC      HX             42.6640419240       50.1938836163       15.2990122741  MEMB      173             0.0000000000
     20194       173  POPC      HY             43.3693663377       49.4837374056       13.7850804067  MEMB      173             0.0000000000
     20195       173  POPC      O31            44.2931390321       51.3529304127       14.5135675987  MEMB      173             0.0000000000
     20196       173  POPC      C31            44.8692930567       51.6109570213       13.3346085436  MEMB      173             0.0000000000
     20197       173  POPC      O32            44.9390125982       50.7764268831       12.4419784143  MEMB      173             0.0000000000
     20198       173  POPC      C32            45.3366980526       53.1017755265       13.1721618116  MEMB      173             0.0000000000
     20199       173  POPC      H2X            45.8306593254       53.5329704394       14.0690421973  MEMB      173             0.0000000000
     20200       173  POPC      H2Y            44.4108832853       53.6824748057       12.9722211710  MEMB      173             0.0000000000
     20201       173  POPC      C23            46.5965000224       47.0581382340       11.6506126972  MEMB      173             0.0000000000
     20202       173  POPC      H3R            46.1006469584       46.0664429093       11.5799655956  MEMB      173             0.0000000000
     20203       173  POPC      H3S            47.6750193763       46.8943989346       11.4401214812  MEMB      173             0.0000000000
     20204       173  POPC      C24            46.1186168011       47.9059458974       10.5113855758  MEMB      173             0.0000000000
     20205       173  POPC      H4R            46.4714780243       48.9499016760       10.6526869188  MEMB      173             0.0000000000
     20206       173  POPC      H4S            45.0238369613       48.0947486017       10.4999085953  MEMB      173             0.0000000000
     20207       173  POPC      C25            46.4339604027       47.3208513801        9.1303055265  MEMB      173             0.0000000000
     20208       173  POPC      H5R            45.9577300602       46.3241071931        9.0118719265  MEMB      173             0.0000000000
     20209       173  POPC      H5S            47.5208120581       47.0975761946        9.0735378484  MEMB      173             0.0000000000
     20210       173  POPC      C26            45.9387508337       48.2102172695        7.9790582668  MEMB      173             0.0000000000
     20211       173  POPC      H6R            46.2521244667       49.2678591298        8.1113901278  MEMB      173             0.0000000000
     20212       173  POPC      H6S            44.8309720237       48.1574787217        8.0451305508  MEMB      173             0.0000000000
     20213       173  POPC      C27            46.1669880868       47.6582058707        6.5565087616  MEMB      173             0.0000000000
     20214       173  POPC      H7R            45.7500522901       46.6293710173        6.5119608497  MEMB      173             0.0000000000
     20215       173  POPC      H7S            47.2538784499       47.6880909745        6.3282604327  MEMB      173             0.0000000000
     20216       173  POPC      C28            45.4903927536       48.4738034740        5.3489201421  MEMB      173             0.0000000000
     20217       173  POPC      H8R            46.0911633811       48.0675938682        4.5072617370  MEMB      173             0.0000000000
     20218       173  POPC      H8S            45.8564709900       49.5066098796        5.5322736065  MEMB      173             0.0000000000
     20219       173  POPC      C29            44.0261081364       48.4262716368        5.0913233944  MEMB      173             0.0000000000
     20220       173  POPC      H91            43.3951696242       48.5539540261        5.9832948052  MEMB      173             0.0000000000
     20221       173  POPC      C210           43.3445538803       48.2708723112        3.8446192124  MEMB      173             0.0000000000
     20222       173  POPC      H101           42.2900816674       48.5822386946        3.8108599483  MEMB      173             0.0000000000
     20223       173  POPC      C211           43.9713115378       48.0930126595        2.5319251937  MEMB      173             0.0000000000
     20224       173  POPC      H11R           43.4824846418       47.2251383322        2.0398240899  MEMB      173             0.0000000000
     20225       173  POPC      H11S           44.9350020708       47.5564595368        2.6650891670  MEMB      173             0.0000000000
     20226       173  POPC      C212           44.1905861374       49.3322441798        1.6420401839  MEMB      173             0.0000000000
     20227       173  POPC      H12R           43.1834164715       49.3849356878        1.1760423147  MEMB      173             0.0000000000
     20228       173  POPC      H12S           44.9626254566       49.1302418136        0.8690777090  MEMB      173             0.0000000000
     20229       173  POPC      C213           44.4550026522       50.6341002860        2.3586129372  MEMB      173             0.0000000000
     20230       173  POPC      H13R           44.9047330852       50.4650485318        3.3603551054  MEMB      173             0.0000000000
     20231       173  POPC      H13S           43.4751988869       51.1078915726        2.5818331945  MEMB      173             0.0000000000
     20232       173  POPC      C214           45.3309860635       51.7214850129        1.6335341137  MEMB      173             0.0000000000
     20233       173  POPC      H14R           44.8507326745       51.9392848317        0.6556597784  MEMB      173             0.0000000000
     20234       173  POPC      H14S           46.3315091530       51.3004256551        1.3969260907  MEMB      173             0.0000000000
     20235       173  POPC      C215           45.3470044576       53.0593209111        2.3496436257  MEMB      173             0.0000000000
     20236       173  POPC      H15R           45.6874066194       52.9511522983        3.4016643038  MEMB      173             0.0000000000
     20237       173  POPC      H15S           44.3473527559       53.4978001611        2.5564129624  MEMB      173             0.0000000000
     20238       173  POPC      C216           45.9978692390       54.2879991796        1.6322677689  MEMB      173             0.0000000000
     20239       173  POPC      H16R           45.6284173351       55.2345161691        2.0816357818  MEMB      173             0.0000000000
     20240       173  POPC      H16S           45.9427050491       54.2792712291        0.5226710244  MEMB      173             0.0000000000
     20241       173  POPC      C217           47.5564791710       54.3689088978        1.8350999640  MEMB      173             0.0000000000
     20242       173  POPC      H17R           48.0548109061       53.4255068923        1.5252946705  MEMB      173             0.0000000000
     20243       173  POPC      H17S           47.8549507426       54.5876618661        2.8826599328  MEMB      173             0.0000000000
     20244       173  POPC      C218           48.1782097504       55.5018752612        1.0174341430  MEMB      173             0.0000000000
     20245       173  POPC      H18R           47.7409688155       56.4429261961        1.4143783271  MEMB      173             0.0000000000
     20246       173  POPC      H18S           48.1587830171       55.3409452102       -0.0816765820  MEMB      173             0.0000000000
     20247       173  POPC      H18T           49.2497223752       55.5427400388        1.3081417923  MEMB      173             0.0000000000
     20248       173  POPC      C33            46.1461239728       53.2763632120       11.8862709211  MEMB      173             0.0000000000
     20249       173  POPC      H3X            45.6340416663       52.9660289318       10.9504366342  MEMB      173             0.0000000000
     20250       173  POPC      H3Y            47.0314393528       52.6293507294       12.0649111818  MEMB      173             0.0000000000
     20251       173  POPC      C34            46.4517016005       54.7662486190       11.7033910671  MEMB      173             0.0000000000
     20252       173  POPC      H4X            46.9952501623       55.1747473236       12.5820295021  MEMB      173             0.0000000000
     20253       173  POPC      H4Y            45.4680357292       55.2824725946       11.7187316602  MEMB      173             0.0000000000
     20254       173  POPC      C35            47.3778774285       55.1790502656       10.4768493280  MEMB      173             0.0000000000
     20255       173  POPC      H5X            48.3434827298       54.7377722218       10.8042654063  MEMB      173             0.0000000000
     20256       173  POPC      H5Y            47.3637300457       56.2862311699       10.5677967057  MEMB      173             0.0000000000
     20257       173  POPC      C36            46.9932539809       54.5720049817        9.1155698825  MEMB      173             0.0000000000
     20258       173  POPC      H6X            45.8924388732       54.7206942832        9.0951063798  MEMB      173             0.0000000000
     20259       173  POPC      H6Y            47.2316108625       53.4868990412        9.1083574730  MEMB      173             0.0000000000
     20260       173  POPC      C37            47.5474373314       55.4665215463        8.0216053492  MEMB      173             0.0000000000
     20261       173  POPC      H7X            48.6487585069       55.3350916480        8.0859399290  MEMB      173             0.0000000000
     20262       173  POPC      H7Y            47.3388753831       56.5553968031        8.0935294429  MEMB      173             0.0000000000
     20263       173  POPC      C38            47.0116859879       55.0899916873        6.6597099100  MEMB      173             0.0000000000
     20264       173  POPC      H8X            47.7203798342       55.6289328521        5.9951675159  MEMB      173             0.0000000000
     20265       173  POPC      H8Y            45.9668553670       55.4505936321        6.5473867988  MEMB      173             0.0000000000
     20266       173  POPC      C39            47.0547361159       53.5545430300        6.3235787697  MEMB      173             0.0000000000
     20267       173  POPC      H9X            46.6961828522       53.4506086605        5.2771761415  MEMB      173             0.0000000000
     20268       173  POPC      H9Y            46.4580416331       52.9006346233        6.9949068720  MEMB      173             0.0000000000
     20269       173  POPC      C310           48.4365362137       53.0159375147        6.2070573525  MEMB      173             0.0000000000
     20270       173  POPC      H10X           48.8754751112       53.0154677358        7.2276717126  MEMB      173             0.0000000000
     20271       173  POPC      H10Y           49.0284068314       53.6437400951        5.5071467766  MEMB      173             0.0000000000
     20272       173  POPC      C311           48.4556924601       51.5086649878        5.9524525875  MEMB      173             0.0000000000
     20273       173  POPC      H11X           47.6737906484       51.0334884510        6.5826572720  MEMB      173             0.0000000000
     20274       173  POPC      H11Y           49.4613064275       51.0937586065        6.1780942518  MEMB      173             0.0000000000
     20275       173  POPC      C312           48.1224247659       51.2312060094        4.5409304958  MEMB      173             0.0000000000
     20276       173  POPC      H12X           48.4877563619       51.9752820490        3.8011968805  MEMB      173             0.0000000000
     20277       173  POPC      H12Y           47.0135490853       51.2447169199        4.4736015289  MEMB      173             0.0000000000
     20278       173  POPC      C313           48.6203529325       49.8998463095        4.0752337146  MEMB      173             0.0000000000
     20279       173  POPC      H13X           48.3341000771       48.9703630185        4.6123011814  MEMB      173             0.0000000000
     20280       173  POPC      H13Y           49.7302874902       49.8785434479        4.0314997601  MEMB      173             0.0000000000
     20281       173  POPC      C314           47.9716295926       49.7441103717        2.6100560747  MEMB      173             0.0000000000
     20282       173  POPC      H14X           48.3037911339       50.5490197565        1.9200489608  MEMB      173             0.0000000000
     20283       173  POPC      H14Y           46.8857063381       49.7961799001        2.8389237389  MEMB      173             0.0000000000
     20284       173  POPC      C315           48.3662971914       48.3646825944        2.1122990400  MEMB      173             0.0000000000
     20285       173  POPC      H15X           47.7231031699       47.9685947609        1.2975996490  MEMB      173             0.0000000000
     20286       173  POPC      H15Y           48.2804850939       47.6026912461        2.9162440751  MEMB      173             0.0000000000
     20287       173  POPC      C316           49.9033835748       48.3365939439        1.7181836359  MEMB      173             0.0000000000
     20288       173  POPC      H16X           50.4673573568       48.3519353131        2.6752729087  MEMB      173             0.0000000000
     20289       173  POPC      H16Y           50.2886717008       49.0860245535        0.9941476491  MEMB      173             0.0000000000
     20290       173  POPC      H16Z           50.1921137216       47.3838318120        1.2250308865  MEMB      173             0.0000000000
     20291       174  POPE      N              44.1743045897      -56.2204441657       19.1170140054  MEMB      174             0.0000000000
     20292       174  POPE      HN1            45.0333554010      -56.3896997810       18.5557794369  MEMB      174             0.0000000000
     20293       174  POPE      HN2            43.8826963522      -55.2426035028       18.9160357702  MEMB      174             0.0000000000
     20294       174  POPE      HN3            44.2449044949      -56.5822260475       20.0895002716  MEMB      174             0.0000000000
     20295       174  POPE      C12            42.8518312352      -56.8160468429       18.5174159649  MEMB      174             0.0000000000
     20296       174  POPE      H12A           42.9338439094      -57.9190812855       18.4129653457  MEMB      174             0.0000000000
     20297       174  POPE      H12B           42.8145611803      -56.2951359328       17.5368121787  MEMB      174             0.0000000000
     20298       174  POPE      C11            41.5824983019      -56.2677333525       19.2884568525  MEMB      174             0.0000000000
     20299       174  POPE      H11A           41.6377765866      -56.8387027025       20.2399079839  MEMB      174             0.0000000000
     20300       174  POPE      H11B           40.6316533220      -56.4894934957       18.7583273617  MEMB      174             0.0000000000
     20301       174  POPE      P              40.6262303045      -53.8858750098       19.0574592338  MEMB      174             0.0000000000
     20302       174  POPE      O13            40.7354008355      -52.5861227694       19.7658378056  MEMB      174             0.0000000000
     20303       174  POPE      O14            39.3204878383      -54.4850057647       18.9618541907  MEMB      174             0.0000000000
     20304       174  POPE      O11            41.2175518198      -53.7907895750       17.6110380812  MEMB      174             0.0000000000
     20305       174  POPE      O12            41.7140374645      -54.9313774090       19.6809238676  MEMB      174             0.0000000000
     20306       174  POPE      C1             42.3825492701      -53.0722415155       17.3431724014  MEMB      174             0.0000000000
     20307       174  POPE      HA             42.9762013551      -53.6143871339       16.5763763736  MEMB      174             0.0000000000
     20308       174  POPE      HB             43.0392614987      -52.9811721411       18.2346635886  MEMB      174             0.0000000000
     20309       174  POPE      C2             42.0316488101      -51.6633109154       16.8918813710  MEMB      174             0.0000000000
     20310       174  POPE      HS             41.6039040609      -51.1785471424       17.7954075336  MEMB      174             0.0000000000
     20311       174  POPE      O21            40.9581156042      -51.8868392354       16.0102190047  MEMB      174             0.0000000000
     20312       174  POPE      C21            39.9428461871      -51.0578820006       15.8935971737  MEMB      174             0.0000000000
     20313       174  POPE      O22            39.8836359933      -50.0283578518       16.5626460382  MEMB      174             0.0000000000
     20314       174  POPE      C22            38.8741014018      -51.5172267166       14.9386281418  MEMB      174             0.0000000000
     20315       174  POPE      H2R            39.3647148048      -52.1999701700       14.2123494693  MEMB      174             0.0000000000
     20316       174  POPE      H2S            38.4005595213      -50.6984555953       14.3557963630  MEMB      174             0.0000000000
     20317       174  POPE      C3             43.0865369765      -50.8814448946       16.0993940078  MEMB      174             0.0000000000
     20318       174  POPE      HX             43.8259520962      -50.5635266276       16.8652361259  MEMB      174             0.0000000000
     20319       174  POPE      HY             42.7575991557      -49.9246264623       15.6404609761  MEMB      174             0.0000000000
     20320       174  POPE      O31            43.7866456497      -51.7251458928       15.1863324806  MEMB      174             0.0000000000
     20321       174  POPE      C31            43.2923567925      -51.6472463750       13.9278394124  MEMB      174             0.0000000000
     20322       174  POPE      O32            42.2729242815      -51.1352845251       13.5004803885  MEMB      174             0.0000000000
     20323       174  POPE      C32            44.1073440073      -52.6122866343       13.2232482049  MEMB      174             0.0000000000
     20324       174  POPE      H2X            43.8802122568      -53.6728024123       13.4641592560  MEMB      174             0.0000000000
     20325       174  POPE      H2Y            45.1899510055      -52.3820907643       13.3196484944  MEMB      174             0.0000000000
     20326       174  POPE      C23            37.8336004588      -52.4235147131       15.7739068426  MEMB      174             0.0000000000
     20327       174  POPE      H3R            37.5407413452      -51.8063026327       16.6500369384  MEMB      174             0.0000000000
     20328       174  POPE      H3S            38.4828404398      -53.2340808822       16.1686104989  MEMB      174             0.0000000000
     20329       174  POPE      C24            36.5217309503      -52.9008430448       15.0731097816  MEMB      174             0.0000000000
     20330       174  POPE      H4R            35.9700883001      -51.9590808785       14.8655148008  MEMB      174             0.0000000000
     20331       174  POPE      H4S            36.0440518176      -53.4121986312       15.9360465055  MEMB      174             0.0000000000
     20332       174  POPE      C25            36.8315360801      -53.7949461217       13.8906845261  MEMB      174             0.0000000000
     20333       174  POPE      H5R            37.4423543637      -53.2249551750       13.1583371856  MEMB      174             0.0000000000
     20334       174  POPE      H5S            35.8607412495      -53.8833667170       13.3577114074  MEMB      174             0.0000000000
     20335       174  POPE      C26            37.5313796208      -55.1531622085       14.2257774022  MEMB      174             0.0000000000
     20336       174  POPE      H6R            37.1251483265      -55.4234340251       15.2239006624  MEMB      174             0.0000000000
     20337       174  POPE      H6S            38.6105500314      -54.9911840492       14.4342843290  MEMB      174             0.0000000000
     20338       174  POPE      C27            37.2928983432      -56.3470347695       13.2521818417  MEMB      174             0.0000000000
     20339       174  POPE      H7R            36.2270869117      -56.6605419801       13.2611471430  MEMB      174             0.0000000000
     20340       174  POPE      H7S            37.8933683127      -57.2179420927       13.5917070230  MEMB      174             0.0000000000
     20341       174  POPE      C28            37.6990061379      -56.0189464291       11.7341320991  MEMB      174             0.0000000000
     20342       174  POPE      H8R            37.8081759549      -57.0017675540       11.2277079342  MEMB      174             0.0000000000
     20343       174  POPE      H8S            38.7448023972      -55.6468767728       11.7809888595  MEMB      174             0.0000000000
     20344       174  POPE      C29            36.8273649689      -55.0483015971       10.9384332715  MEMB      174             0.0000000000
     20345       174  POPE      H91            35.7435434478      -55.2362656403       10.9386076185  MEMB      174             0.0000000000
     20346       174  POPE      C210           37.2786561350      -54.0303956385       10.2381149296  MEMB      174             0.0000000000
     20347       174  POPE      H101           36.6636051092      -53.3820843964        9.5967064685  MEMB      174             0.0000000000
     20348       174  POPE      C211           38.7202351797      -53.5032729713       10.0362252421  MEMB      174             0.0000000000
     20349       174  POPE      H11R           39.4564179044      -54.0973661649       10.6188135785  MEMB      174             0.0000000000
     20350       174  POPE      H11S           38.7858552107      -52.4341533723       10.3311789088  MEMB      174             0.0000000000
     20351       174  POPE      C212           39.2592491133      -53.7010872218        8.5535722609  MEMB      174             0.0000000000
     20352       174  POPE      H12R           40.1709894256      -53.0780051098        8.4318369803  MEMB      174             0.0000000000
     20353       174  POPE      H12S           38.5329037985      -53.3221267885        7.8031509107  MEMB      174             0.0000000000
     20354       174  POPE      C213           39.6037631818      -55.2180731119        8.3200178373  MEMB      174             0.0000000000
     20355       174  POPE      H13R           38.7302273008      -55.8217744625        8.6468212808  MEMB      174             0.0000000000
     20356       174  POPE      H13S           40.3568617324      -55.5918257366        9.0462909306  MEMB      174             0.0000000000
     20357       174  POPE      C214           40.1134302235      -55.6281708707        7.0067370526  MEMB      174             0.0000000000
     20358       174  POPE      H14R           39.3203228852      -55.8798585566        6.2705610550  MEMB      174             0.0000000000
     20359       174  POPE      H14S           40.7303611068      -56.5329832119        7.1939051240  MEMB      174             0.0000000000
     20360       174  POPE      C215           41.2141231868      -54.6902485232        6.3213098251  MEMB      174             0.0000000000
     20361       174  POPE      H15R           42.0236243981      -54.5409857097        7.0674656914  MEMB      174             0.0000000000
     20362       174  POPE      H15S           40.6180766802      -53.7639195880        6.1765194116  MEMB      174             0.0000000000
     20363       174  POPE      C216           41.8529417464      -55.2994971971        5.0516722760  MEMB      174             0.0000000000
     20364       174  POPE      H16R           42.3795463537      -56.2146147140        5.3974588194  MEMB      174             0.0000000000
     20365       174  POPE      H16S           42.5684863408      -54.4624909116        4.9042356094  MEMB      174             0.0000000000
     20366       174  POPE      C217           40.9177036999      -55.6008863554        3.9067379190  MEMB      174             0.0000000000
     20367       174  POPE      H17R           40.4933697669      -54.5935878050        3.7077116714  MEMB      174             0.0000000000
     20368       174  POPE      H17S           40.1692542824      -56.3185861582        4.3055499574  MEMB      174             0.0000000000
     20369       174  POPE      C218           41.5122416550      -56.0481040157        2.6102507892  MEMB      174             0.0000000000
     20370       174  POPE      H18R           42.5645080104      -55.6950079511        2.5614727547  MEMB      174             0.0000000000
     20371       174  POPE      H18S           40.8408358183      -55.8277021436        1.7529548164  MEMB      174             0.0000000000
     20372       174  POPE      H18T           41.5370041802      -57.1537538848        2.5042044119  MEMB      174             0.0000000000
     20373       174  POPE      C33            43.7970207584      -52.5980905020       11.6795987525  MEMB      174             0.0000000000
     20374       174  POPE      H3X            43.9573081347      -51.5559069286       11.3296242984  MEMB      174             0.0000000000
     20375       174  POPE      H3Y            42.7425815143      -52.9034656137       11.5086456221  MEMB      174             0.0000000000
     20376       174  POPE      C34            44.6950025866      -53.5221133351       10.8082163270  MEMB      174             0.0000000000
     20377       174  POPE      H4X            45.7781596343      -53.3194130609       10.9496531721  MEMB      174             0.0000000000
     20378       174  POPE      H4Y            44.4338796246      -53.1833193272        9.7828605773  MEMB      174             0.0000000000
     20379       174  POPE      C35            44.4414376829      -55.0149952787       11.1048611060  MEMB      174             0.0000000000
     20380       174  POPE      H5X            43.3475719139      -55.2083741289       11.1244384890  MEMB      174             0.0000000000
     20381       174  POPE      H5Y            44.8383699735      -55.2372434783       12.1184540358  MEMB      174             0.0000000000
     20382       174  POPE      C36            45.2869842232      -55.9271790981       10.1610108622  MEMB      174             0.0000000000
     20383       174  POPE      H6X            45.0694197980      -56.9127345748       10.6254110578  MEMB      174             0.0000000000
     20384       174  POPE      H6Y            46.3453941446      -55.6677471697       10.3773075216  MEMB      174             0.0000000000
     20385       174  POPE      C37            45.0738279896      -55.9160252702        8.6941588674  MEMB      174             0.0000000000
     20386       174  POPE      H7X            45.5355853486      -54.9868091791        8.2970963295  MEMB      174             0.0000000000
     20387       174  POPE      H7Y            44.0082138843      -55.8658731564        8.3838814459  MEMB      174             0.0000000000
     20388       174  POPE      C38            45.7560689269      -57.1520178597        8.0694944697  MEMB      174             0.0000000000
     20389       174  POPE      H8X            45.2075801386      -58.0401753707        8.4498328436  MEMB      174             0.0000000000
     20390       174  POPE      H8Y            46.8191417969      -57.2366282747        8.3810038616  MEMB      174             0.0000000000
     20391       174  POPE      C39            45.6430682729      -57.2510046061        6.5078756427  MEMB      174             0.0000000000
     20392       174  POPE      H9X            44.8362885350      -57.9333367385        6.1645822483  MEMB      174             0.0000000000
     20393       174  POPE      H9Y            46.5568379380      -57.7820350099        6.1653089586  MEMB      174             0.0000000000
     20394       174  POPE      C310           45.8270374715      -55.9548342893        5.7503229824  MEMB      174             0.0000000000
     20395       174  POPE      H10X           46.7964514798      -55.5525491492        6.1146365497  MEMB      174             0.0000000000
     20396       174  POPE      H10Y           44.9749590852      -55.2643810134        5.9279671097  MEMB      174             0.0000000000
     20397       174  POPE      C311           46.0153639057      -56.0791711358        4.1776525326  MEMB      174             0.0000000000
     20398       174  POPE      H11X           46.0751223107      -55.0522980405        3.7577940192  MEMB      174             0.0000000000
     20399       174  POPE      H11Y           45.1937884689      -56.6689187219        3.7177256951  MEMB      174             0.0000000000
     20400       174  POPE      C312           47.2888060223      -56.8612971679        3.7965607049  MEMB      174             0.0000000000
     20401       174  POPE      H12X           47.2220397503      -57.8843534260        4.2246018404  MEMB      174             0.0000000000
     20402       174  POPE      H12Y           48.2318452748      -56.4733289817        4.2375582676  MEMB      174             0.0000000000
     20403       174  POPE      C313           47.4608109775      -57.1783279409        2.2659325139  MEMB      174             0.0000000000
     20404       174  POPE      H13X           46.9200767695      -58.0197268273        1.7822228056  MEMB      174             0.0000000000
     20405       174  POPE      H13Y           48.5171157313      -57.5226161977        2.2632214686  MEMB      174             0.0000000000
     20406       174  POPE      C314           47.1464062618      -55.9966209211        1.3633062901  MEMB      174             0.0000000000
     20407       174  POPE      H14X           47.7212139778      -55.1031741722        1.6883748282  MEMB      174             0.0000000000
     20408       174  POPE      H14Y           46.0475969291      -55.8596074158        1.4536741054  MEMB      174             0.0000000000
     20409       174  POPE      C315           47.7709460874      -56.2673304432       -0.0280095026  MEMB      174             0.0000000000
     20410       174  POPE      H15X           47.4480670933      -57.2345909699       -0.4690068402  MEMB      174             0.0000000000
     20411       174  POPE      H15Y           48.8453270158      -56.2100468058        0.2490188490  MEMB      174             0.0000000000
     20412       174  POPE      C316           47.5820134525      -55.1911466947       -1.0856957231  MEMB      174             0.0000000000
     20413       174  POPE      H16X           47.8776584524      -54.1625434849       -0.7875495789  MEMB      174             0.0000000000
     20414       174  POPE      H16Y           46.5466198608      -55.2465021905       -1.4847146401  MEMB      174             0.0000000000
     20415       174  POPE      H16Z           48.2006668924      -55.5088541102       -1.9520948070  MEMB      174             0.0000000000
     20416       175  POPC      N              49.5735347246      -35.3299380871       18.8146565760  MEMB      175             0.0000000000
     20417       175  POPC      C12            50.2639719868      -34.5849757116       17.7327120108  MEMB      175             0.0000000000
     20418       175  POPC      H12A           49.7298229926      -34.8717223526       16.8389216413  MEMB      175             0.0000000000
     20419       175  POPC      H12B           51.2752616389      -34.9056498413       17.5305699668  MEMB      175             0.0000000000
     20420       175  POPC      C13            48.3168692942      -34.5772432473       19.2047189081  MEMB      175             0.0000000000
     20421       175  POPC      H13A           47.6712515188      -35.2025806748       19.8034933515  MEMB      175             0.0000000000
     20422       175  POPC      H13B           48.6538924774      -33.8043078180       19.8795417964  MEMB      175             0.0000000000
     20423       175  POPC      H13C           47.8235892771      -34.2092300680       18.3172273996  MEMB      175             0.0000000000
     20424       175  POPC      C14            49.1927871572      -36.7319436283       18.4539583112  MEMB      175             0.0000000000
     20425       175  POPC      H14A           50.0968443896      -37.2975081888       18.2830282360  MEMB      175             0.0000000000
     20426       175  POPC      H14B           48.5659025524      -37.1060867287       19.2498430805  MEMB      175             0.0000000000
     20427       175  POPC      H14C           48.5451766791      -36.6635328640       17.5923780569  MEMB      175             0.0000000000
     20428       175  POPC      C15            50.5431948837      -35.3776712127       19.9718601191  MEMB      175             0.0000000000
     20429       175  POPC      H15A           50.4787225579      -34.3806337786       20.3819327971  MEMB      175             0.0000000000
     20430       175  POPC      H15B           51.5582285314      -35.6041235899       19.6806113951  MEMB      175             0.0000000000
     20431       175  POPC      H15C           50.2011348398      -36.1383048152       20.6580319242  MEMB      175             0.0000000000
     20432       175  POPC      C11            50.2723267598      -33.0051675490       17.6590245950  MEMB      175             0.0000000000
     20433       175  POPC      H11A           49.2985664703      -32.6077134059       17.3010551235  MEMB      175             0.0000000000
     20434       175  POPC      H11B           51.1120486821      -32.5791092213       17.0693955856  MEMB      175             0.0000000000
     20435       175  POPC      P              50.0124178392      -31.1739714753       19.5224351636  MEMB      175             0.0000000000
     20436       175  POPC      O13            51.0211212416      -30.1118252914       19.7179036652  MEMB      175             0.0000000000
     20437       175  POPC      O14            49.1050103203      -31.5160969839       20.6635101055  MEMB      175             0.0000000000
     20438       175  POPC      O12            50.6070854256      -32.4941741394       18.9549676878  MEMB      175             0.0000000000
     20439       175  POPC      O11            49.1736180917      -30.6790809773       18.3042528524  MEMB      175             0.0000000000
     20440       175  POPC      C1             47.8927232822      -30.1716812279       18.5500872605  MEMB      175             0.0000000000
     20441       175  POPC      HA             47.9342305752      -29.0939865493       18.8168683717  MEMB      175             0.0000000000
     20442       175  POPC      HB             47.2866302882      -30.8158617009       19.2223996179  MEMB      175             0.0000000000
     20443       175  POPC      C2             46.9937979677      -30.1600993949       17.2817771436  MEMB      175             0.0000000000
     20444       175  POPC      HS             45.9931597199      -29.8743285364       17.6708510541  MEMB      175             0.0000000000
     20445       175  POPC      O21            46.9218331991      -31.5046713817       16.7757716386  MEMB      175             0.0000000000
     20446       175  POPC      C21            46.0117838055      -31.8255574343       15.8633440480  MEMB      175             0.0000000000
     20447       175  POPC      O22            45.1127877303      -31.1152016140       15.4600662571  MEMB      175             0.0000000000
     20448       175  POPC      C22            46.1796835488      -33.2661309520       15.4014412650  MEMB      175             0.0000000000
     20449       175  POPC      H2R            45.3289034015      -33.4984449700       14.7257750529  MEMB      175             0.0000000000
     20450       175  POPC      H2S            46.1379041925      -33.9368315941       16.2861649477  MEMB      175             0.0000000000
     20451       175  POPC      C3             47.3898591579      -29.1616105744       16.1261964008  MEMB      175             0.0000000000
     20452       175  POPC      HX             47.5863588073      -28.1484911346       16.5376549671  MEMB      175             0.0000000000
     20453       175  POPC      HY             46.5217871165      -29.2672481725       15.4409136947  MEMB      175             0.0000000000
     20454       175  POPC      O31            48.5350138549      -29.5921325894       15.3587344600  MEMB      175             0.0000000000
     20455       175  POPC      C31            49.6224500014      -28.9744202766       15.6211544529  MEMB      175             0.0000000000
     20456       175  POPC      O32            49.7906175009      -27.9886955974       16.3204272482  MEMB      175             0.0000000000
     20457       175  POPC      C32            50.7625586033      -29.7374202962       14.9109080845  MEMB      175             0.0000000000
     20458       175  POPC      H2X            51.1832043089      -30.4684833515       15.6340436378  MEMB      175             0.0000000000
     20459       175  POPC      H2Y            51.4378271804      -28.9325127909       14.5497194860  MEMB      175             0.0000000000
     20460       175  POPC      C23            47.5502673337      -33.4490376168       14.7727191326  MEMB      175             0.0000000000
     20461       175  POPC      H3R            48.3493140366      -33.2534630742       15.5194426993  MEMB      175             0.0000000000
     20462       175  POPC      H3S            47.7256909430      -32.7101630418       13.9617862393  MEMB      175             0.0000000000
     20463       175  POPC      C24            47.7777849562      -34.8483582961       14.1717667535  MEMB      175             0.0000000000
     20464       175  POPC      H4R            47.4548168948      -35.6618310017       14.8560729333  MEMB      175             0.0000000000
     20465       175  POPC      H4S            48.8787750290      -34.9792540619       14.2425344100  MEMB      175             0.0000000000
     20466       175  POPC      C25            47.2876667369      -34.9185987132       12.7360601311  MEMB      175             0.0000000000
     20467       175  POPC      H5R            47.5696933469      -33.9523315143       12.2658371095  MEMB      175             0.0000000000
     20468       175  POPC      H5S            46.1792728585      -34.9138493725       12.8119648783  MEMB      175             0.0000000000
     20469       175  POPC      C26            47.8054086770      -36.0664431284       11.9160573777  MEMB      175             0.0000000000
     20470       175  POPC      H6R            47.4706109785      -35.9085093115       10.8685416381  MEMB      175             0.0000000000
     20471       175  POPC      H6S            47.2248727573      -36.9239682895       12.3184872857  MEMB      175             0.0000000000
     20472       175  POPC      C27            49.3421513648      -36.1295867812       11.8555977319  MEMB      175             0.0000000000
     20473       175  POPC      H7R            49.7167438918      -36.6236797899       12.7774834676  MEMB      175             0.0000000000
     20474       175  POPC      H7S            49.7950047023      -35.1161560166       11.8086624809  MEMB      175             0.0000000000
     20475       175  POPC      C28            49.9962619105      -36.7922823539       10.6079501513  MEMB      175             0.0000000000
     20476       175  POPC      H8R            51.0514641383      -36.9450410733       10.9202544333  MEMB      175             0.0000000000
     20477       175  POPC      H8S            49.9501255170      -36.0078654047        9.8225318907  MEMB      175             0.0000000000
     20478       175  POPC      C29            49.3087908136      -38.0936032340       10.2267307422  MEMB      175             0.0000000000
     20479       175  POPC      H91            49.2731567667      -38.7671783874       11.0956525451  MEMB      175             0.0000000000
     20480       175  POPC      C210           48.7601678080      -38.4144668341        9.0345312741  MEMB      175             0.0000000000
     20481       175  POPC      H101           48.3879740355      -39.4362228142        8.8687408071  MEMB      175             0.0000000000
     20482       175  POPC      C211           48.7823311036      -37.4923914474        7.7749613023  MEMB      175             0.0000000000
     20483       175  POPC      H11R           49.0448742693      -36.4506104564        8.0579539274  MEMB      175             0.0000000000
     20484       175  POPC      H11S           47.7546764411      -37.3458655974        7.3790104406  MEMB      175             0.0000000000
     20485       175  POPC      C212           49.7540517524      -37.9656285844        6.6896744875  MEMB      175             0.0000000000
     20486       175  POPC      H12R           49.4649214274      -38.8632203102        6.1022628172  MEMB      175             0.0000000000
     20487       175  POPC      H12S           50.7305328785      -38.1665270090        7.1800271231  MEMB      175             0.0000000000
     20488       175  POPC      C213           50.1123251995      -36.9626260939        5.6105839221  MEMB      175             0.0000000000
     20489       175  POPC      H13R           50.9162371418      -37.3745137024        4.9637494850  MEMB      175             0.0000000000
     20490       175  POPC      H13S           50.4670665470      -36.0134633261        6.0661823689  MEMB      175             0.0000000000
     20491       175  POPC      C214           48.9075301803      -36.6171997472        4.7509423302  MEMB      175             0.0000000000
     20492       175  POPC      H14R           48.2061361583      -36.0711181200        5.4173971449  MEMB      175             0.0000000000
     20493       175  POPC      H14S           48.4913228418      -37.5501877823        4.3143361382  MEMB      175             0.0000000000
     20494       175  POPC      C215           49.1407065530      -35.5985374387        3.5529423459  MEMB      175             0.0000000000
     20495       175  POPC      H15R           49.4168285624      -34.6249297511        4.0113800492  MEMB      175             0.0000000000
     20496       175  POPC      H15S           48.2370645788      -35.6019162123        2.9066123603  MEMB      175             0.0000000000
     20497       175  POPC      C216           50.3155240433      -35.9725098837        2.6178844390  MEMB      175             0.0000000000
     20498       175  POPC      H16R           50.1073092357      -36.9591385725        2.1514798364  MEMB      175             0.0000000000
     20499       175  POPC      H16S           51.2464581856      -36.1654555448        3.1927359127  MEMB      175             0.0000000000
     20500       175  POPC      C217           50.6844203665      -34.9939952296        1.3729883925  MEMB      175             0.0000000000
     20501       175  POPC      H17R           49.7747853211      -34.9691526271        0.7355978513  MEMB      175             0.0000000000
     20502       175  POPC      H17S           51.5912254723      -35.4198015401        0.8926615841  MEMB      175             0.0000000000
     20503       175  POPC      C218           50.9161864627      -33.5881096714        1.6686379955  MEMB      175             0.0000000000
     20504       175  POPC      H18R           51.5251511140      -33.4141429505        2.5814451922  MEMB      175             0.0000000000
     20505       175  POPC      H18S           49.9549286394      -33.0671872200        1.8659808009  MEMB      175             0.0000000000
     20506       175  POPC      H18T           51.3906257395      -33.0668319952        0.8098597790  MEMB      175             0.0000000000
     20507       175  POPC      C33            50.2363143203      -30.2723963350       13.4675926468  MEMB      175             0.0000000000
     20508       175  POPC      H3X            49.6229264995      -29.4785441546       12.9902302153  MEMB      175             0.0000000000
     20509       175  POPC      H3Y            49.7024791727      -31.2288863313       13.6532479715  MEMB      175             0.0000000000
     20510       175  POPC      C34            51.3898629013      -30.5675180482       12.4904398297  MEMB      175             0.0000000000
     20511       175  POPC      H4X            52.2043028850      -31.0591730977       13.0642722526  MEMB      175             0.0000000000
     20512       175  POPC      H4Y            51.7698952671      -29.6918603959       11.9220033027  MEMB      175             0.0000000000
     20513       175  POPC      C35            50.9177985320      -31.6679413631       11.5355161630  MEMB      175             0.0000000000
     20514       175  POPC      H5X            50.4945090616      -32.5368496536       12.0833717039  MEMB      175             0.0000000000
     20515       175  POPC      H5Y            51.8113686004      -31.9969346590       10.9631378438  MEMB      175             0.0000000000
     20516       175  POPC      C36            49.8546008793      -31.1520032875       10.5601174995  MEMB      175             0.0000000000
     20517       175  POPC      H6X            50.1660506512      -30.2845820790        9.9397142162  MEMB      175             0.0000000000
     20518       175  POPC      H6Y            48.9513496884      -30.9200781867       11.1639960541  MEMB      175             0.0000000000
     20519       175  POPC      C37            49.4263281092      -32.1444285077        9.4797373644  MEMB      175             0.0000000000
     20520       175  POPC      H7X            48.4291712694      -31.9072736092        9.0510693624  MEMB      175             0.0000000000
     20521       175  POPC      H7Y            49.4093777718      -33.1241738771       10.0033144342  MEMB      175             0.0000000000
     20522       175  POPC      C38            50.4575276549      -32.2931385849        8.2923887955  MEMB      175             0.0000000000
     20523       175  POPC      H8X            50.1837670360      -33.2206019828        7.7454086619  MEMB      175             0.0000000000
     20524       175  POPC      H8Y            51.4795706871      -32.3797385678        8.7192962916  MEMB      175             0.0000000000
     20525       175  POPC      C39            50.4955602904      -31.0466922732        7.3232907935  MEMB      175             0.0000000000
     20526       175  POPC      H9X            51.3398869490      -31.2685431492        6.6361117025  MEMB      175             0.0000000000
     20527       175  POPC      H9Y            50.7178785806      -30.0595931791        7.7821271304  MEMB      175             0.0000000000
     20528       175  POPC      C310           49.2350065077      -30.8630602233        6.4452000431  MEMB      175             0.0000000000
     20529       175  POPC      H10X           48.3538057915      -30.8929936674        7.1211508016  MEMB      175             0.0000000000
     20530       175  POPC      H10Y           49.2290878586      -31.7156600279        5.7329079241  MEMB      175             0.0000000000
     20531       175  POPC      C311           49.2206609891      -29.5104108788        5.7017483862  MEMB      175             0.0000000000
     20532       175  POPC      H11X           50.0593997337      -29.3120680628        5.0006796045  MEMB      175             0.0000000000
     20533       175  POPC      H11Y           49.4364291507      -28.7049568627        6.4359206402  MEMB      175             0.0000000000
     20534       175  POPC      C312           47.8871093533      -29.1609927951        5.0193748146  MEMB      175             0.0000000000
     20535       175  POPC      H12X           47.9109023916      -28.0722059195        4.7996065077  MEMB      175             0.0000000000
     20536       175  POPC      H12Y           47.0176327268      -29.4886933822        5.6284260618  MEMB      175             0.0000000000
     20537       175  POPC      C313           47.6977990935      -29.9717681917        3.6586588781  MEMB      175             0.0000000000
     20538       175  POPC      H13X           47.9452642139      -30.9759230763        4.0645585519  MEMB      175             0.0000000000
     20539       175  POPC      H13Y           48.5644184195      -29.6246380629        3.0563364906  MEMB      175             0.0000000000
     20540       175  POPC      C314           46.3137430068      -29.8835677204        3.0733400176  MEMB      175             0.0000000000
     20541       175  POPC      H14X           46.1024599249      -28.8046768462        2.9131065718  MEMB      175             0.0000000000
     20542       175  POPC      H14Y           45.5806944705      -30.3030446435        3.7951436883  MEMB      175             0.0000000000
     20543       175  POPC      C315           46.1475513263      -30.5939724068        1.6777942172  MEMB      175             0.0000000000
     20544       175  POPC      H15X           46.6609372535      -29.8508543947        1.0308538396  MEMB      175             0.0000000000
     20545       175  POPC      H15Y           45.0954236089      -30.4567776039        1.3483611919  MEMB      175             0.0000000000
     20546       175  POPC      C316           46.4964564214      -32.1069674610        1.5629695335  MEMB      175             0.0000000000
     20547       175  POPC      H16X           45.8736409613      -32.7653667557        2.2055675137  MEMB      175             0.0000000000
     20548       175  POPC      H16Y           47.5370142824      -32.4175143265        1.7977483349  MEMB      175             0.0000000000
     20549       175  POPC      H16Z           46.2411911296      -32.3921330668        0.5199720557  MEMB      175             0.0000000000
     20550       176  POPC      N             -52.7510340424      -38.8274461410       20.9492539060  MEMB      176             0.0000000000
     20551       176  POPC      C12           -51.6761421294      -38.6130909315       19.8574622224  MEMB      176             0.0000000000
     20552       176  POPC      H12A          -50.7002059630      -38.9170796579       20.2060873404  MEMB      176             0.0000000000
     20553       176  POPC      H12B          -51.5414426613      -37.5415255038       19.8556185827  MEMB      176             0.0000000000
     20554       176  POPC      C13           -53.2312723654      -40.2293483629       20.7924708859  MEMB      176             0.0000000000
     20555       176  POPC      H13A          -52.4457280257      -40.8571657030       21.1863815659  MEMB      176             0.0000000000
     20556       176  POPC      H13B          -54.0709001730      -40.4335641653       21.4403295866  MEMB      176             0.0000000000
     20557       176  POPC      H13C          -53.4669729374      -40.2928475356       19.7404190442  MEMB      176             0.0000000000
     20558       176  POPC      C14           -52.1250373046      -38.4846052762       22.3190936168  MEMB      176             0.0000000000
     20559       176  POPC      H14A          -51.8338684671      -37.4446162796       22.3124949774  MEMB      176             0.0000000000
     20560       176  POPC      H14B          -52.9237047512      -38.6036508121       23.0362817971  MEMB      176             0.0000000000
     20561       176  POPC      H14C          -51.2926259276      -39.1580130817       22.4605616958  MEMB      176             0.0000000000
     20562       176  POPC      C15           -53.8820081131      -37.8548748532       20.7411286506  MEMB      176             0.0000000000
     20563       176  POPC      H15A          -53.6593238485      -36.8002244039       20.8083906656  MEMB      176             0.0000000000
     20564       176  POPC      H15B          -54.6828452947      -37.9209102916       21.4627233649  MEMB      176             0.0000000000
     20565       176  POPC      H15C          -54.2681930092      -38.0275740407       19.7474303700  MEMB      176             0.0000000000
     20566       176  POPC      C11           -51.8606001603      -39.0637586463       18.4233244382  MEMB      176             0.0000000000
     20567       176  POPC      H11A          -51.9576700169      -40.1634211216       18.2982603078  MEMB      176             0.0000000000
     20568       176  POPC      H11B          -50.9072732540      -38.7794769232       17.9286805320  MEMB      176             0.0000000000
     20569       176  POPC      P             -53.1662608272      -37.1367528212       17.2257486560  MEMB      176             0.0000000000
     20570       176  POPC      O13           -52.0618897069      -36.3060272402       17.7839478539  MEMB      176             0.0000000000
     20571       176  POPC      O14           -54.5773611231      -36.7367386630       17.4351556562  MEMB      176             0.0000000000
     20572       176  POPC      O12           -53.0731236684      -38.6132316361       17.8013819364  MEMB      176             0.0000000000
     20573       176  POPC      O11           -52.9427394783      -37.2944021146       15.6710322084  MEMB      176             0.0000000000
     20574       176  POPC      C1            -52.5757983126      -36.2028408440       14.8434924734  MEMB      176             0.0000000000
     20575       176  POPC      HA            -51.5082138304      -35.9111202723       14.9408761403  MEMB      176             0.0000000000
     20576       176  POPC      HB            -53.1813926164      -35.3242396860       15.1527439312  MEMB      176             0.0000000000
     20577       176  POPC      C2            -52.8769960599      -36.3439059446       13.3157371502  MEMB      176             0.0000000000
     20578       176  POPC      HS            -52.2648989614      -35.6505676362       12.7001558625  MEMB      176             0.0000000000
     20579       176  POPC      O21           -54.2855451191      -36.0604780180       13.1899175671  MEMB      176             0.0000000000
     20580       176  POPC      C21           -54.8387134106      -34.8804918579       12.8811140323  MEMB      176             0.0000000000
     20581       176  POPC      O22           -54.3168389992      -33.7968872964       12.7334186010  MEMB      176             0.0000000000
     20582       176  POPC      C22           -56.3207245278      -35.1272750647       12.7147713369  MEMB      176             0.0000000000
     20583       176  POPC      H2R           -56.8682519982      -34.5842708745       13.5145719888  MEMB      176             0.0000000000
     20584       176  POPC      H2S           -56.6241508129      -36.1922480055       12.6248484935  MEMB      176             0.0000000000
     20585       176  POPC      C3            -52.5516306760      -37.8230336259       12.8390520385  MEMB      176             0.0000000000
     20586       176  POPC      HX            -52.8743622204      -38.5095610292       13.6507451778  MEMB      176             0.0000000000
     20587       176  POPC      HY            -51.4566634987      -37.7843467691       13.0230932873  MEMB      176             0.0000000000
     20588       176  POPC      O31           -52.8641022036      -38.2170494249       11.4563722465  MEMB      176             0.0000000000
     20589       176  POPC      C31           -52.5187284891      -39.4463080100       11.0835205639  MEMB      176             0.0000000000
     20590       176  POPC      O32           -51.9448860980      -40.2255256415       11.8063986561  MEMB      176             0.0000000000
     20591       176  POPC      C32           -52.9311424318      -39.8191500865        9.7404543899  MEMB      176             0.0000000000
     20592       176  POPC      H2X           -53.8260265862      -39.2459065097        9.4165796266  MEMB      176             0.0000000000
     20593       176  POPC      H2Y           -53.0788752101      -40.9201811322        9.7555085114  MEMB      176             0.0000000000
     20594       176  POPC      C23           -56.6442099917      -34.5240947308       11.3418284450  MEMB      176             0.0000000000
     20595       176  POPC      H3R           -56.6148983111      -33.4136607656       11.3617851529  MEMB      176             0.0000000000
     20596       176  POPC      H3S           -57.7125455347      -34.7032145091       11.0950574920  MEMB      176             0.0000000000
     20597       176  POPC      C24           -55.8945462750      -35.0477780225       10.0559129277  MEMB      176             0.0000000000
     20598       176  POPC      H4R           -55.1604181747      -35.8409903774       10.3131891141  MEMB      176             0.0000000000
     20599       176  POPC      H4S           -55.4107149590      -34.1852010531        9.5497610068  MEMB      176             0.0000000000
     20600       176  POPC      C25           -56.9067046432      -35.6285547210        9.0373014759  MEMB      176             0.0000000000
     20601       176  POPC      H5R           -57.6489078554      -34.8998115683        8.6469314142  MEMB      176             0.0000000000
     20602       176  POPC      H5S           -57.3911704134      -36.4351737458        9.6280468186  MEMB      176             0.0000000000
     20603       176  POPC      C26           -56.2377747238      -36.3633008086        7.7942830798  MEMB      176             0.0000000000
     20604       176  POPC      H6R           -55.5809205009      -37.1560035592        8.2119975695  MEMB      176             0.0000000000
     20605       176  POPC      H6S           -55.5671863580      -35.6528286272        7.2652633154  MEMB      176             0.0000000000
     20606       176  POPC      C27           -57.0986272491      -36.9853893888        6.6542692839  MEMB      176             0.0000000000
     20607       176  POPC      H7R           -57.6085903585      -36.2112784716        6.0418875211  MEMB      176             0.0000000000
     20608       176  POPC      H7S           -58.0598869746      -37.4019927858        7.0240556234  MEMB      176             0.0000000000
     20609       176  POPC      C28           -56.3422018256      -37.8941173792        5.7713915556  MEMB      176             0.0000000000
     20610       176  POPC      H8R           -55.3627807692      -37.4247729809        5.5373594264  MEMB      176             0.0000000000
     20611       176  POPC      H8S           -56.8415596714      -37.8794232092        4.7790480136  MEMB      176             0.0000000000
     20612       176  POPC      C29           -56.1887824120      -39.2508660190        6.3526475833  MEMB      176             0.0000000000
     20613       176  POPC      H91           -56.7783653523      -39.4165493307        7.2663989048  MEMB      176             0.0000000000
     20614       176  POPC      C210          -55.5326883837      -40.2410892627        5.8350879185  MEMB      176             0.0000000000
     20615       176  POPC      H101          -55.3860858488      -41.1414980264        6.4497193551  MEMB      176             0.0000000000
     20616       176  POPC      C211          -54.8799532009      -40.1823655662        4.4987201183  MEMB      176             0.0000000000
     20617       176  POPC      H11R          -55.0499976256      -39.2298704608        3.9526808116  MEMB      176             0.0000000000
     20618       176  POPC      H11S          -55.2225669381      -41.0285388777        3.8655310897  MEMB      176             0.0000000000
     20619       176  POPC      C212          -53.2885455981      -40.1711910327        4.5910495462  MEMB      176             0.0000000000
     20620       176  POPC      H12R          -52.9857946230      -41.1079911274        5.1058975620  MEMB      176             0.0000000000
     20621       176  POPC      H12S          -52.9061686038      -39.2653177480        5.1082554748  MEMB      176             0.0000000000
     20622       176  POPC      C213          -52.4775899775      -40.2002393226        3.3037562477  MEMB      176             0.0000000000
     20623       176  POPC      H13R          -51.4026315934      -40.2691899243        3.5758430615  MEMB      176             0.0000000000
     20624       176  POPC      H13S          -52.5581144746      -39.2127545738        2.8010523390  MEMB      176             0.0000000000
     20625       176  POPC      C214          -52.7900263344      -41.3406558348        2.2952386105  MEMB      176             0.0000000000
     20626       176  POPC      H14R          -53.8797113450      -41.4992536425        2.1477445021  MEMB      176             0.0000000000
     20627       176  POPC      H14S          -52.3132983462      -42.1964123601        2.8193886232  MEMB      176             0.0000000000
     20628       176  POPC      C215          -52.2737154931      -40.9466531186        0.8967222692  MEMB      176             0.0000000000
     20629       176  POPC      H15R          -51.3045648225      -40.4264104447        1.0529774646  MEMB      176             0.0000000000
     20630       176  POPC      H15S          -52.9976918985      -40.2235469517        0.4639435671  MEMB      176             0.0000000000
     20631       176  POPC      C216          -52.1672975618      -42.0794495268       -0.0269434681  MEMB      176             0.0000000000
     20632       176  POPC      H16R          -53.2170911700      -42.3799332218       -0.2317954306  MEMB      176             0.0000000000
     20633       176  POPC      H16S          -51.5171724051      -42.8561260315        0.4295990215  MEMB      176             0.0000000000
     20634       176  POPC      C217          -51.3967580206      -41.5764641494       -1.1988775988  MEMB      176             0.0000000000
     20635       176  POPC      H17R          -50.4170548762      -41.1368577049       -0.9138352733  MEMB      176             0.0000000000
     20636       176  POPC      H17S          -51.9569493576      -40.7563692242       -1.6968248826  MEMB      176             0.0000000000
     20637       176  POPC      C218          -51.1338843677      -42.5615245237       -2.3201957388  MEMB      176             0.0000000000
     20638       176  POPC      H18R          -50.1679687536      -43.0249072545       -2.0259093864  MEMB      176             0.0000000000
     20639       176  POPC      H18S          -51.1335567047      -42.1147486683       -3.3374030479  MEMB      176             0.0000000000
     20640       176  POPC      H18T          -51.9220055603      -43.3364845310       -2.2078430971  MEMB      176             0.0000000000
     20641       176  POPC      C33           -51.8541921618      -39.4444608194        8.7776831659  MEMB      176             0.0000000000
     20642       176  POPC      H3X           -52.0878350757      -39.9046860630        7.7938518159  MEMB      176             0.0000000000
     20643       176  POPC      H3Y           -50.8942110247      -39.8954966481        9.1083246360  MEMB      176             0.0000000000
     20644       176  POPC      C34           -51.7118469957      -37.9560332047        8.5324967547  MEMB      176             0.0000000000
     20645       176  POPC      H4X           -50.7552069890      -37.7609716597        8.0022977435  MEMB      176             0.0000000000
     20646       176  POPC      H4Y           -51.4117578539      -37.5501361675        9.5222016842  MEMB      176             0.0000000000
     20647       176  POPC      C35           -52.8889500824      -37.1933685845        7.9487950661  MEMB      176             0.0000000000
     20648       176  POPC      H5X           -53.5296648783      -37.0945734918        8.8510401989  MEMB      176             0.0000000000
     20649       176  POPC      H5Y           -53.5512951487      -37.7381293056        7.2424985319  MEMB      176             0.0000000000
     20650       176  POPC      C36           -52.6154925882      -35.7806381808        7.4579099694  MEMB      176             0.0000000000
     20651       176  POPC      H6X           -51.9516124743      -35.4220027952        8.2733635309  MEMB      176             0.0000000000
     20652       176  POPC      H6Y           -53.5777762739      -35.2255669532        7.4729777765  MEMB      176             0.0000000000
     20653       176  POPC      C37           -51.9372606190      -35.7978790523        6.0550044850  MEMB      176             0.0000000000
     20654       176  POPC      H7X           -52.5086735361      -36.5736753467        5.5018783568  MEMB      176             0.0000000000
     20655       176  POPC      H7Y           -50.9316485374      -36.2291311518        6.2475838502  MEMB      176             0.0000000000
     20656       176  POPC      C38           -52.0148583245      -34.4910463426        5.2116249240  MEMB      176             0.0000000000
     20657       176  POPC      H8X           -51.3615827921      -33.7838035719        5.7660259318  MEMB      176             0.0000000000
     20658       176  POPC      H8Y           -53.0577126855      -34.1149163092        5.1388120799  MEMB      176             0.0000000000
     20659       176  POPC      C39           -51.4429592556      -34.6626819326        3.7894118079  MEMB      176             0.0000000000
     20660       176  POPC      H9X           -50.6370224193      -35.4230581769        3.8707438482  MEMB      176             0.0000000000
     20661       176  POPC      H9Y           -50.9546880851      -33.7763693039        3.3307584688  MEMB      176             0.0000000000
     20662       176  POPC      C310          -52.5160587187      -35.2470389754        2.8669834216  MEMB      176             0.0000000000
     20663       176  POPC      H10X          -53.3476435460      -34.5104695181        2.8828858266  MEMB      176             0.0000000000
     20664       176  POPC      H10Y          -52.9434840365      -36.2514130084        3.0740129085  MEMB      176             0.0000000000
     20665       176  POPC      C311          -52.1515769873      -35.3974172590        1.3840133951  MEMB      176             0.0000000000
     20666       176  POPC      H11X          -51.2655483440      -36.0676351402        1.3749401041  MEMB      176             0.0000000000
     20667       176  POPC      H11Y          -51.8737303584      -34.4029653064        0.9739066316  MEMB      176             0.0000000000
     20668       176  POPC      C312          -53.2668875513      -35.8214416023        0.5005034325  MEMB      176             0.0000000000
     20669       176  POPC      H12X          -53.0402923696      -35.3299842676       -0.4697772842  MEMB      176             0.0000000000
     20670       176  POPC      H12Y          -54.2683390178      -35.4278149432        0.7770416991  MEMB      176             0.0000000000
     20671       176  POPC      C313          -53.5476557963      -37.3547432137        0.3349158138  MEMB      176             0.0000000000
     20672       176  POPC      H13X          -54.2096500440      -37.6351098800        1.1819570397  MEMB      176             0.0000000000
     20673       176  POPC      H13Y          -52.5794064711      -37.8651809594        0.5253566584  MEMB      176             0.0000000000
     20674       176  POPC      C314          -54.1695559514      -37.7040280372       -1.0527747634  MEMB      176             0.0000000000
     20675       176  POPC      H14X          -54.5602764897      -38.7403149019       -0.9646369258  MEMB      176             0.0000000000
     20676       176  POPC      H14Y          -53.3792061142      -37.6991431913       -1.8335719135  MEMB      176             0.0000000000
     20677       176  POPC      C315          -55.3694403398      -36.8785824014       -1.5485883180  MEMB      176             0.0000000000
     20678       176  POPC      H15X          -55.8131487308      -37.2822550228       -2.4837309282  MEMB      176             0.0000000000
     20679       176  POPC      H15Y          -55.0238439165      -35.8892218966       -1.9174378498  MEMB      176             0.0000000000
     20680       176  POPC      C316          -56.4749456384      -36.8404085331       -0.5225949515  MEMB      176             0.0000000000
     20681       176  POPC      H16X          -56.2124634121      -36.4512158446        0.4843566650  MEMB      176             0.0000000000
     20682       176  POPC      H16Y          -56.8473869665      -37.8565459460       -0.2714516424  MEMB      176             0.0000000000
     20683       176  POPC      H16Z          -57.3438619164      -36.3020452643       -0.9578781686  MEMB      176             0.0000000000
     20684       177  POPC      N              50.5898114565      -41.6475447597       20.7339728039  MEMB      177             0.0000000000
     20685       177  POPC      C12            49.0815833765      -41.8706013255       20.9011479036  MEMB      177             0.0000000000
     20686       177  POPC      H12A           48.7377969606      -41.2111521249       21.6843067399  MEMB      177             0.0000000000
     20687       177  POPC      H12B           48.8290567129      -42.8862110729       21.1679196813  MEMB      177             0.0000000000
     20688       177  POPC      C13            51.1471909831      -42.3394866285       19.5302173094  MEMB      177             0.0000000000
     20689       177  POPC      H13A           50.9311543584      -43.3971005691       19.5645824538  MEMB      177             0.0000000000
     20690       177  POPC      H13B           50.6218403895      -41.9919711590       18.6529261322  MEMB      177             0.0000000000
     20691       177  POPC      H13C           52.1844502401      -42.0960723252       19.3534611358  MEMB      177             0.0000000000
     20692       177  POPC      C14            50.7047754709      -40.1058549756       20.6441263394  MEMB      177             0.0000000000
     20693       177  POPC      H14A           51.7687327310      -39.9413679828       20.5584590175  MEMB      177             0.0000000000
     20694       177  POPC      H14B           50.0472353223      -39.7020373437       19.8884993508  MEMB      177             0.0000000000
     20695       177  POPC      H14C           50.4940981199      -39.7771180194       21.6510758378  MEMB      177             0.0000000000
     20696       177  POPC      C15            51.4061805021      -41.9391944598       21.9717977908  MEMB      177             0.0000000000
     20697       177  POPC      H15A           52.4361821883      -41.6181315479       21.9226537571  MEMB      177             0.0000000000
     20698       177  POPC      H15B           51.3679350853      -42.9997953183       22.1719556167  MEMB      177             0.0000000000
     20699       177  POPC      H15C           50.8832261336      -41.5315179739       22.8242757409  MEMB      177             0.0000000000
     20700       177  POPC      C11            48.2161818177      -41.5360088239       19.6929678924  MEMB      177             0.0000000000
     20701       177  POPC      H11A           48.2291602195      -40.4711014907       19.3765425702  MEMB      177             0.0000000000
     20702       177  POPC      H11B           47.1497123291      -41.5835975895       20.0007000422  MEMB      177             0.0000000000
     20703       177  POPC      P              48.2622983024      -42.0443776273       17.0888862496  MEMB      177             0.0000000000
     20704       177  POPC      O13            48.8792136063      -40.6946761695       16.9227998424  MEMB      177             0.0000000000
     20705       177  POPC      O14            46.9072951544      -42.3631742067       16.5377718509  MEMB      177             0.0000000000
     20706       177  POPC      O12            48.3780796039      -42.4463356767       18.6381909882  MEMB      177             0.0000000000
     20707       177  POPC      O11            49.1732560237      -43.0749028493       16.3381210133  MEMB      177             0.0000000000
     20708       177  POPC      C1             49.3229096532      -44.4587757562       16.7344645851  MEMB      177             0.0000000000
     20709       177  POPC      HA             48.3874405553      -45.0479160410       16.8446108441  MEMB      177             0.0000000000
     20710       177  POPC      HB             49.8970749234      -44.5077440409       17.6843369605  MEMB      177             0.0000000000
     20711       177  POPC      C2             50.0911339840      -45.1329550802       15.5381180580  MEMB      177             0.0000000000
     20712       177  POPC      HS             50.4790353474      -46.1073969282       15.9046103805  MEMB      177             0.0000000000
     20713       177  POPC      O21            51.2577786787      -44.2760873427       15.2751435688  MEMB      177             0.0000000000
     20714       177  POPC      C21            52.3005267563      -44.1043852447       16.1294431278  MEMB      177             0.0000000000
     20715       177  POPC      O22            52.4496413617      -44.6664486689       17.1884178757  MEMB      177             0.0000000000
     20716       177  POPC      C22            53.3529438404      -43.1318690875       15.5643418666  MEMB      177             0.0000000000
     20717       177  POPC      H2R            54.1094914655      -43.7156574594       14.9976427296  MEMB      177             0.0000000000
     20718       177  POPC      H2S            53.7108975465      -42.7005245070       16.5235767621  MEMB      177             0.0000000000
     20719       177  POPC      C3             49.1573224788      -45.2271363931       14.3993707652  MEMB      177             0.0000000000
     20720       177  POPC      HX             48.5399977589      -44.3389325433       14.1457464179  MEMB      177             0.0000000000
     20721       177  POPC      HY             48.4508107002      -46.0814254683       14.4725273779  MEMB      177             0.0000000000
     20722       177  POPC      O31            49.8870235552      -45.5073579822       13.2390190192  MEMB      177             0.0000000000
     20723       177  POPC      C31            50.1877661971      -46.7878382198       12.9517570744  MEMB      177             0.0000000000
     20724       177  POPC      O32            49.8210546885      -47.8190112920       13.5245930804  MEMB      177             0.0000000000
     20725       177  POPC      C32            51.1194271341      -46.7751465495       11.6594139020  MEMB      177             0.0000000000
     20726       177  POPC      H2X            50.4921046922      -46.5228873289       10.7778511880  MEMB      177             0.0000000000
     20727       177  POPC      H2Y            51.4534231331      -47.8213816162       11.4916057388  MEMB      177             0.0000000000
     20728       177  POPC      C23            52.7810525291      -42.0388552995       14.5849962971  MEMB      177             0.0000000000
     20729       177  POPC      H3R            52.3674537029      -42.5986556450       13.7190398614  MEMB      177             0.0000000000
     20730       177  POPC      H3S            53.6964098050      -41.4680035086       14.3193460207  MEMB      177             0.0000000000
     20731       177  POPC      C24            51.7174309932      -41.2233237215       15.3057414765  MEMB      177             0.0000000000
     20732       177  POPC      H4R            52.0716892286      -41.0430034218       16.3431935656  MEMB      177             0.0000000000
     20733       177  POPC      H4S            50.8241649752      -41.8360295513       15.5526999165  MEMB      177             0.0000000000
     20734       177  POPC      C25            51.2979464344      -40.1125558870       14.4133925366  MEMB      177             0.0000000000
     20735       177  POPC      H5R            52.1848108023      -39.6842723456       13.8992275721  MEMB      177             0.0000000000
     20736       177  POPC      H5S            50.7522079756      -39.3648230398       15.0277102150  MEMB      177             0.0000000000
     20737       177  POPC      C26            50.4694873642      -40.5991173654       13.1474815200  MEMB      177             0.0000000000
     20738       177  POPC      H6R            49.6791950980      -41.1732050501       13.6768043388  MEMB      177             0.0000000000
     20739       177  POPC      H6S            51.0948665290      -41.3806668811       12.6654008072  MEMB      177             0.0000000000
     20740       177  POPC      C27            49.9153189068      -39.6765746046       12.0434437338  MEMB      177             0.0000000000
     20741       177  POPC      H7R            50.6662641217      -38.8652535391       11.9331676227  MEMB      177             0.0000000000
     20742       177  POPC      H7S            49.1336536509      -39.0150864138       12.4744350108  MEMB      177             0.0000000000
     20743       177  POPC      C28            49.5485675025      -40.3211323648       10.7269393878  MEMB      177             0.0000000000
     20744       177  POPC      H8R            50.4209081361      -40.8269162004       10.2605427920  MEMB      177             0.0000000000
     20745       177  POPC      H8S            49.4056009652      -39.4422914356       10.0624694565  MEMB      177             0.0000000000
     20746       177  POPC      C29            48.2860012514      -41.1328959654       10.8620336684  MEMB      177             0.0000000000
     20747       177  POPC      H91            47.4901848841      -40.4762346223       11.2434418358  MEMB      177             0.0000000000
     20748       177  POPC      C210           48.1062948162      -42.4646137314       10.6455961936  MEMB      177             0.0000000000
     20749       177  POPC      H101           47.1393643617      -42.9819088536       10.7319164875  MEMB      177             0.0000000000
     20750       177  POPC      C211           49.1645474075      -43.4341290927       10.2463716501  MEMB      177             0.0000000000
     20751       177  POPC      H11R           48.9565805989      -44.3708181146       10.8064471088  MEMB      177             0.0000000000
     20752       177  POPC      H11S           50.1746507142      -43.0177611553       10.4479905519  MEMB      177             0.0000000000
     20753       177  POPC      C212           49.0930275203      -43.8786502363        8.7876986139  MEMB      177             0.0000000000
     20754       177  POPC      H12R           50.1215945705      -44.1743851637        8.4895181106  MEMB      177             0.0000000000
     20755       177  POPC      H12S           48.9680403371      -43.0357779578        8.0747711062  MEMB      177             0.0000000000
     20756       177  POPC      C213           48.1903296455      -45.0700030322        8.4468191162  MEMB      177             0.0000000000
     20757       177  POPC      H13R           47.1986457518      -45.0202924359        8.9452294076  MEMB      177             0.0000000000
     20758       177  POPC      H13S           48.6330418810      -45.9863245756        8.8925562627  MEMB      177             0.0000000000
     20759       177  POPC      C214           47.9215130232      -45.4400331805        6.9293398683  MEMB      177             0.0000000000
     20760       177  POPC      H14R           47.3362188792      -44.6129842923        6.4735526500  MEMB      177             0.0000000000
     20761       177  POPC      H14S           47.3825248029      -46.4112750677        6.9069383423  MEMB      177             0.0000000000
     20762       177  POPC      C215           49.2019974589      -45.5144253974        6.1449896090  MEMB      177             0.0000000000
     20763       177  POPC      H15R           49.7995311066      -46.3349441929        6.5966790728  MEMB      177             0.0000000000
     20764       177  POPC      H15S           49.6643183140      -44.5760596968        6.5192221848  MEMB      177             0.0000000000
     20765       177  POPC      C216           49.0993976691      -45.6818914696        4.5999975210  MEMB      177             0.0000000000
     20766       177  POPC      H16R           48.7374553164      -44.7711513383        4.0766704564  MEMB      177             0.0000000000
     20767       177  POPC      H16S           48.4673519542      -46.5759676345        4.4116700081  MEMB      177             0.0000000000
     20768       177  POPC      C217           50.4709111892      -45.9106763821        3.9317819606  MEMB      177             0.0000000000
     20769       177  POPC      H17R           51.2064052764      -46.5355799936        4.4821131314  MEMB      177             0.0000000000
     20770       177  POPC      H17S           51.0002451261      -44.9354973672        3.8756347877  MEMB      177             0.0000000000
     20771       177  POPC      C218           50.3571285574      -46.4999179869        2.5352291184  MEMB      177             0.0000000000
     20772       177  POPC      H18R           50.0923385690      -47.5787908913        2.5507323137  MEMB      177             0.0000000000
     20773       177  POPC      H18S           51.4138644022      -46.5961383766        2.2060302324  MEMB      177             0.0000000000
     20774       177  POPC      H18T           49.8393363969      -45.9500165317        1.7204773290  MEMB      177             0.0000000000
     20775       177  POPC      C33            52.2186205299      -45.7028227960       11.6681333716  MEMB      177             0.0000000000
     20776       177  POPC      H3X            52.9282697771      -45.9426327323       12.4886272435  MEMB      177             0.0000000000
     20777       177  POPC      H3Y            51.6325848106      -44.7700539287       11.8124429642  MEMB      177             0.0000000000
     20778       177  POPC      C34            53.0899003711      -45.6139391304       10.4055496723  MEMB      177             0.0000000000
     20779       177  POPC      H4X            53.4989407022      -46.5756230763       10.0284940961  MEMB      177             0.0000000000
     20780       177  POPC      H4Y            53.9735419172      -45.0781442284       10.8134984895  MEMB      177             0.0000000000
     20781       177  POPC      C35            52.5389951906      -44.7385335670        9.2232900752  MEMB      177             0.0000000000
     20782       177  POPC      H5X            52.0510567503      -43.8118664355        9.5941334500  MEMB      177             0.0000000000
     20783       177  POPC      H5Y            51.9397985298      -45.4071386541        8.5688801518  MEMB      177             0.0000000000
     20784       177  POPC      C36            53.8027868681      -44.3838151387        8.3222955776  MEMB      177             0.0000000000
     20785       177  POPC      H6X            54.3450852358      -45.3320425539        8.1195652378  MEMB      177             0.0000000000
     20786       177  POPC      H6Y            54.4037266451      -43.7724519885        9.0289971499  MEMB      177             0.0000000000
     20787       177  POPC      C37            53.5569987632      -43.5935937369        7.0166976598  MEMB      177             0.0000000000
     20788       177  POPC      H7X            53.2156137972      -44.3204126700        6.2489003134  MEMB      177             0.0000000000
     20789       177  POPC      H7Y            54.5364836785      -43.1674683355        6.7111685952  MEMB      177             0.0000000000
     20790       177  POPC      C38            52.5507617855      -42.4158607589        7.1094075250  MEMB      177             0.0000000000
     20791       177  POPC      H8X            52.7864282067      -41.9127415585        8.0715165561  MEMB      177             0.0000000000
     20792       177  POPC      H8Y            51.5314110366      -42.8280267040        7.2686679993  MEMB      177             0.0000000000
     20793       177  POPC      C39            52.7611409086      -41.2557153766        6.1098048656  MEMB      177             0.0000000000
     20794       177  POPC      H9X            52.4262870310      -41.6272244136        5.1177490810  MEMB      177             0.0000000000
     20795       177  POPC      H9Y            53.8055789076      -40.9304253989        5.9157522147  MEMB      177             0.0000000000
     20796       177  POPC      C310           51.9527086771      -40.0052919070        6.4703093087  MEMB      177             0.0000000000
     20797       177  POPC      H10X           52.1294239623      -39.3084397529        5.6232619388  MEMB      177             0.0000000000
     20798       177  POPC      H10Y           52.3729904068      -39.6359441958        7.4301356672  MEMB      177             0.0000000000
     20799       177  POPC      C311           50.4933503045      -40.2787670641        6.6727268954  MEMB      177             0.0000000000
     20800       177  POPC      H11X           50.2009072383      -39.2356670142        6.9191829328  MEMB      177             0.0000000000
     20801       177  POPC      H11Y           50.2970250788      -40.8991234021        7.5732460644  MEMB      177             0.0000000000
     20802       177  POPC      C312           49.6026469763      -40.9185383062        5.6086121609  MEMB      177             0.0000000000
     20803       177  POPC      H12X           48.5789586939      -41.0720405325        6.0121224182  MEMB      177             0.0000000000
     20804       177  POPC      H12Y           49.9744742734      -41.9612356949        5.5145496465  MEMB      177             0.0000000000
     20805       177  POPC      C313           49.6590138236      -40.0578778033        4.3469830311  MEMB      177             0.0000000000
     20806       177  POPC      H13X           50.6058652264      -40.2799726556        3.8098917641  MEMB      177             0.0000000000
     20807       177  POPC      H13Y           49.6116130724      -38.9567352868        4.4868392177  MEMB      177             0.0000000000
     20808       177  POPC      C314           48.5666704476      -40.5942605086        3.3604340817  MEMB      177             0.0000000000
     20809       177  POPC      H14X           48.6144634653      -39.9732996866        2.4404095395  MEMB      177             0.0000000000
     20810       177  POPC      H14Y           47.5507382031      -40.4465620454        3.7851549380  MEMB      177             0.0000000000
     20811       177  POPC      C315           48.6913822349      -42.0377689876        2.8553076713  MEMB      177             0.0000000000
     20812       177  POPC      H15X           49.0155510032      -42.6503646553        3.7236176417  MEMB      177             0.0000000000
     20813       177  POPC      H15Y           49.4641659054      -42.0257345727        2.0571963129  MEMB      177             0.0000000000
     20814       177  POPC      C316           47.3864757751      -42.6048355992        2.3921701110  MEMB      177             0.0000000000
     20815       177  POPC      H16X           47.6057377421      -43.4209370615        1.6709031250  MEMB      177             0.0000000000
     20816       177  POPC      H16Y           46.8924503609      -41.8703066832        1.7208070083  MEMB      177             0.0000000000
     20817       177  POPC      H16Z           46.7564126510      -43.0147366623        3.2102903929  MEMB      177             0.0000000000
     20818       178  POPE      N             -51.9093749263      -44.9282953132       21.6251536360  MEMB      178             0.0000000000
     20819       178  POPE      HN1           -51.2059892928      -45.5757411539       22.0346199110  MEMB      178             0.0000000000
     20820       178  POPE      HN2           -51.7190849474      -44.0673889476       22.1767240058  MEMB      178             0.0000000000
     20821       178  POPE      HN3           -52.8866896216      -45.1525932553       21.9011000582  MEMB      178             0.0000000000
     20822       178  POPE      C12           -51.7408611570      -44.6828575917       20.1127395090  MEMB      178             0.0000000000
     20823       178  POPE      H12A          -50.7205934512      -44.2814266839       19.9332169433  MEMB      178             0.0000000000
     20824       178  POPE      H12B          -52.4146983038      -43.9151470107       19.6758358646  MEMB      178             0.0000000000
     20825       178  POPE      C11           -51.9308839115      -46.0476963179       19.4199175257  MEMB      178             0.0000000000
     20826       178  POPE      H11A          -51.5188197305      -46.8492372495       20.0695760733  MEMB      178             0.0000000000
     20827       178  POPE      H11B          -51.4253002016      -45.9616860974       18.4343677468  MEMB      178             0.0000000000
     20828       178  POPE      P             -53.9944623613      -47.3219976245       18.1618854383  MEMB      178             0.0000000000
     20829       178  POPE      O13           -54.5680476907      -46.5840361647       16.9654809670  MEMB      178             0.0000000000
     20830       178  POPE      O14           -54.8664539006      -48.1972448779       18.9037561634  MEMB      178             0.0000000000
     20831       178  POPE      O11           -52.7886864863      -48.2241652769       17.6526203399  MEMB      178             0.0000000000
     20832       178  POPE      O12           -53.3511543683      -46.2277932292       19.1584464213  MEMB      178             0.0000000000
     20833       178  POPE      C1            -52.2751367605      -49.3579473867       18.3529999207  MEMB      178             0.0000000000
     20834       178  POPE      HA            -52.7953407223      -49.4820920821       19.3268053043  MEMB      178             0.0000000000
     20835       178  POPE      HB            -51.2444533110      -49.0069366198       18.5739164078  MEMB      178             0.0000000000
     20836       178  POPE      C2            -52.2295073806      -50.6148004577       17.5030068817  MEMB      178             0.0000000000
     20837       178  POPE      HS            -51.4341058148      -51.2219664180       17.9857147379  MEMB      178             0.0000000000
     20838       178  POPE      O21           -51.7305733848      -50.3177758260       16.1940356615  MEMB      178             0.0000000000
     20839       178  POPE      C21           -50.4949180224      -49.9664333757       16.0302893430  MEMB      178             0.0000000000
     20840       178  POPE      O22           -49.5997869967      -49.9264380923       16.8274335165  MEMB      178             0.0000000000
     20841       178  POPE      C22           -50.2529527572      -49.8141315543       14.5299412920  MEMB      178             0.0000000000
     20842       178  POPE      H2R           -50.3388275303      -50.7939159514       14.0132506848  MEMB      178             0.0000000000
     20843       178  POPE      H2S           -49.2006480406      -49.4967475514       14.3679438474  MEMB      178             0.0000000000
     20844       178  POPE      C3            -53.4928734388      -51.4515995581       17.2325710561  MEMB      178             0.0000000000
     20845       178  POPE      HX            -53.7932146525      -51.8919756313       18.2073453503  MEMB      178             0.0000000000
     20846       178  POPE      HY            -53.1714864619      -52.3168224248       16.6141692246  MEMB      178             0.0000000000
     20847       178  POPE      O31           -54.5279881305      -50.6826518977       16.7644749755  MEMB      178             0.0000000000
     20848       178  POPE      C31           -54.6408222972      -50.5632023178       15.4422520315  MEMB      178             0.0000000000
     20849       178  POPE      O32           -53.9327932320      -51.1949470537       14.6443075383  MEMB      178             0.0000000000
     20850       178  POPE      C32           -55.8062722238      -49.6615624832       15.0364356659  MEMB      178             0.0000000000
     20851       178  POPE      H2X           -55.6348288049      -48.7063650016       15.5772922668  MEMB      178             0.0000000000
     20852       178  POPE      H2Y           -56.8504194239      -49.9273323351       15.3074409732  MEMB      178             0.0000000000
     20853       178  POPE      C23           -51.1491421467      -48.6267280863       14.0295665687  MEMB      178             0.0000000000
     20854       178  POPE      H3R           -51.1786811470      -47.7852979933       14.7544414551  MEMB      178             0.0000000000
     20855       178  POPE      H3S           -52.1249550966      -49.0881072392       13.7664329737  MEMB      178             0.0000000000
     20856       178  POPE      C24           -50.5071497375      -47.9191130984       12.7636972923  MEMB      178             0.0000000000
     20857       178  POPE      H4R           -49.4083560795      -47.9529974253       12.9243991946  MEMB      178             0.0000000000
     20858       178  POPE      H4S           -50.9417776859      -46.9222174028       12.5364989627  MEMB      178             0.0000000000
     20859       178  POPE      C25           -50.8665557698      -48.6603070795       11.4546324518  MEMB      178             0.0000000000
     20860       178  POPE      H5R           -51.9274944380      -48.5147859876       11.1587375532  MEMB      178             0.0000000000
     20861       178  POPE      H5S           -50.5583257532      -49.6649110764       11.8153068360  MEMB      178             0.0000000000
     20862       178  POPE      C26           -49.9872381110      -48.4091148226       10.1831090852  MEMB      178             0.0000000000
     20863       178  POPE      H6R           -50.5727276346      -48.8234232445        9.3346563601  MEMB      178             0.0000000000
     20864       178  POPE      H6S           -48.9960682389      -48.9104636945       10.2066168948  MEMB      178             0.0000000000
     20865       178  POPE      C27           -49.9218190273      -46.8304157583        9.7565583032  MEMB      178             0.0000000000
     20866       178  POPE      H7R           -49.3963050081      -46.2934599774       10.5749929605  MEMB      178             0.0000000000
     20867       178  POPE      H7S           -50.9474719070      -46.4285154969        9.6122204666  MEMB      178             0.0000000000
     20868       178  POPE      C28           -49.1768612534      -46.6273337835        8.4470412532  MEMB      178             0.0000000000
     20869       178  POPE      H8R           -49.4513544828      -47.3444382351        7.6440868591  MEMB      178             0.0000000000
     20870       178  POPE      H8S           -48.1027210543      -46.8671932440        8.5987366296  MEMB      178             0.0000000000
     20871       178  POPE      C29           -49.4367436298      -45.2687172953        7.9481272464  MEMB      178             0.0000000000
     20872       178  POPE      H91           -48.6146870221      -44.6032368584        8.2503821991  MEMB      178             0.0000000000
     20873       178  POPE      C210          -50.4594263035      -44.8081452500        7.2517569144  MEMB      178             0.0000000000
     20874       178  POPE      H101          -50.5789859782      -43.7216707850        7.1281495815  MEMB      178             0.0000000000
     20875       178  POPE      C211          -51.6438180962      -45.5467514273        6.7480036299  MEMB      178             0.0000000000
     20876       178  POPE      H11R          -52.4913054273      -45.1302161441        7.3333101975  MEMB      178             0.0000000000
     20877       178  POPE      H11S          -51.5371596480      -46.6485306001        6.8430167292  MEMB      178             0.0000000000
     20878       178  POPE      C212          -51.9454501736      -45.4735408471        5.2187552724  MEMB      178             0.0000000000
     20879       178  POPE      H12R          -52.8669892242      -46.0869064723        5.1245784380  MEMB      178             0.0000000000
     20880       178  POPE      H12S          -51.1379521095      -45.9643742681        4.6345030497  MEMB      178             0.0000000000
     20881       178  POPE      C213          -52.0217653885      -44.0838998006        4.6278701574  MEMB      178             0.0000000000
     20882       178  POPE      H13R          -51.0421880936      -43.6321316856        4.8936806816  MEMB      178             0.0000000000
     20883       178  POPE      H13S          -52.9291790588      -43.5770046508        5.0202716977  MEMB      178             0.0000000000
     20884       178  POPE      C214          -52.2114020243      -44.0705041311        3.0324664222  MEMB      178             0.0000000000
     20885       178  POPE      H14R          -51.4381159293      -44.7100098060        2.5556205852  MEMB      178             0.0000000000
     20886       178  POPE      H14S          -52.0835216681      -42.9930087856        2.7937790103  MEMB      178             0.0000000000
     20887       178  POPE      C215          -53.6387726800      -44.4938637392        2.6659109160  MEMB      178             0.0000000000
     20888       178  POPE      H15R          -54.3572870669      -43.8343767947        3.1980152388  MEMB      178             0.0000000000
     20889       178  POPE      H15S          -53.6325964308      -45.5912114613        2.8394375534  MEMB      178             0.0000000000
     20890       178  POPE      C216          -53.9426306516      -44.2187172266        1.1539531968  MEMB      178             0.0000000000
     20891       178  POPE      H16R          -53.2004819654      -44.7769527221        0.5441087872  MEMB      178             0.0000000000
     20892       178  POPE      H16S          -53.9067592180      -43.1146385760        1.0354422570  MEMB      178             0.0000000000
     20893       178  POPE      C217          -55.4227399363      -44.6692307820        0.8540708882  MEMB      178             0.0000000000
     20894       178  POPE      H17R          -56.1470173943      -44.4587717115        1.6698222811  MEMB      178             0.0000000000
     20895       178  POPE      H17S          -55.3822684442      -45.7793300751        0.8731167957  MEMB      178             0.0000000000
     20896       178  POPE      C218          -55.9148579846      -43.9972226675       -0.4669280418  MEMB      178             0.0000000000
     20897       178  POPE      H18R          -56.8565341919      -44.4990273453       -0.7763775769  MEMB      178             0.0000000000
     20898       178  POPE      H18S          -55.1422790201      -44.1045101097       -1.2580866439  MEMB      178             0.0000000000
     20899       178  POPE      H18T          -56.1336561211      -42.9329838862       -0.2348848932  MEMB      178             0.0000000000
     20900       178  POPE      C33           -55.7371417813      -49.4420621664       13.5455025908  MEMB      178             0.0000000000
     20901       178  POPE      H3X           -56.1818643441      -50.3908646574       13.1762916400  MEMB      178             0.0000000000
     20902       178  POPE      H3Y           -54.7243090888      -49.2641964152       13.1249616139  MEMB      178             0.0000000000
     20903       178  POPE      C34           -56.4280813101      -48.2455675241       12.9207451604  MEMB      178             0.0000000000
     20904       178  POPE      H4X           -55.9656134204      -47.2827155197       13.2262942746  MEMB      178             0.0000000000
     20905       178  POPE      H4Y           -57.4672964260      -48.2350394532       13.3134823997  MEMB      178             0.0000000000
     20906       178  POPE      C35           -56.3426420939      -48.2882402021       11.3674489345  MEMB      178             0.0000000000
     20907       178  POPE      H5X           -56.8917362100      -47.4239655345       10.9363506472  MEMB      178             0.0000000000
     20908       178  POPE      H5Y           -56.9849469153      -49.0929695305       10.9501051764  MEMB      178             0.0000000000
     20909       178  POPE      C36           -54.9508483903      -48.5460771952       10.8217243265  MEMB      178             0.0000000000
     20910       178  POPE      H6X           -54.4610265487      -49.4648354476       11.2093823982  MEMB      178             0.0000000000
     20911       178  POPE      H6Y           -54.3300088861      -47.7346974477       11.2582358057  MEMB      178             0.0000000000
     20912       178  POPE      C37           -54.7509437222      -48.4819900161        9.2896954554  MEMB      178             0.0000000000
     20913       178  POPE      H7X           -53.7677915165      -47.9852113757        9.1449753508  MEMB      178             0.0000000000
     20914       178  POPE      H7Y           -55.5426710261      -47.7699268444        8.9727486776  MEMB      178             0.0000000000
     20915       178  POPE      C38           -54.9147343693      -49.7780971729        8.5357894876  MEMB      178             0.0000000000
     20916       178  POPE      H8X           -55.8673809983      -50.3292325107        8.6875627044  MEMB      178             0.0000000000
     20917       178  POPE      H8Y           -54.1368834375      -50.5456793813        8.7360063370  MEMB      178             0.0000000000
     20918       178  POPE      C39           -54.7785367572      -49.6638419535        7.0008290504  MEMB      178             0.0000000000
     20919       178  POPE      H9X           -54.6004115213      -50.6590458711        6.5402198245  MEMB      178             0.0000000000
     20920       178  POPE      H9Y           -53.8582841371      -49.0953220171        6.7473710285  MEMB      178             0.0000000000
     20921       178  POPE      C310          -55.9879191387      -48.9840354573        6.3223565987  MEMB      178             0.0000000000
     20922       178  POPE      H10X          -56.2853385194      -48.0939880058        6.9170653525  MEMB      178             0.0000000000
     20923       178  POPE      H10Y          -56.8559452347      -49.6606968062        6.1707620800  MEMB      178             0.0000000000
     20924       178  POPE      C311          -55.5379722184      -48.3450916497        5.0108125133  MEMB      178             0.0000000000
     20925       178  POPE      H11X          -55.2349196260      -48.9859081323        4.1553395716  MEMB      178             0.0000000000
     20926       178  POPE      H11Y          -54.6633169974      -47.7091557197        5.2655370300  MEMB      178             0.0000000000
     20927       178  POPE      C312          -56.3825505824      -47.2648694230        4.4549558024  MEMB      178             0.0000000000
     20928       178  POPE      H12X          -55.7569055664      -46.7413114107        3.7007831423  MEMB      178             0.0000000000
     20929       178  POPE      H12Y          -56.5679089224      -46.4146860982        5.1457173959  MEMB      178             0.0000000000
     20930       178  POPE      C313          -57.6397020553      -47.7081675650        3.6862762688  MEMB      178             0.0000000000
     20931       178  POPE      H13X          -58.2348066618      -46.8040774318        3.4356908590  MEMB      178             0.0000000000
     20932       178  POPE      H13Y          -58.3104417768      -48.2962211152        4.3485609323  MEMB      178             0.0000000000
     20933       178  POPE      C314          -57.3959076906      -48.4576448120        2.3563075042  MEMB      178             0.0000000000
     20934       178  POPE      H14X          -57.1600429918      -49.5232474283        2.5641064794  MEMB      178             0.0000000000
     20935       178  POPE      H14Y          -56.4652848579      -48.0602708120        1.8976619382  MEMB      178             0.0000000000
     20936       178  POPE      C315          -58.5457038997      -48.4128871578        1.3594794847  MEMB      178             0.0000000000
     20937       178  POPE      H15X          -58.9546271494      -47.4683925020        0.9411104468  MEMB      178             0.0000000000
     20938       178  POPE      H15Y          -59.5078437812      -48.7731478498        1.7823505882  MEMB      178             0.0000000000
     20939       178  POPE      C316          -58.2744641630      -49.2351455255        0.1302717032  MEMB      178             0.0000000000
     20940       178  POPE      H16X          -57.4678462239      -48.8977386911       -0.5551807170  MEMB      178             0.0000000000
     20941       178  POPE      H16Y          -59.2444883640      -49.4004779850       -0.3855201249  MEMB      178             0.0000000000
     20942       178  POPE      H16Z          -57.9852101184      -50.2709119529        0.4092700918  MEMB      178             0.0000000000
     20943       179  CHL1      C3            -52.5067591584       25.9564712761      -17.3317250000  MEMB      179             0.0000000000
     20944       179  CHL1      H3            -51.4680062265       25.5737031373      -17.2380050000  MEMB      179             0.0000000000
     20945       179  CHL1      O3            -52.8985498416       25.7832911239      -18.6682750000  MEMB      179             0.0000000000
     20946       179  CHL1      H3'           -53.8102857396       26.0838508958      -18.6694750000  MEMB      179             0.0000000000
     20947       179  CHL1      C4            -53.3908486008       24.9698962566      -16.5733750000  MEMB      179             0.0000000000
     20948       179  CHL1      H4A           -54.4809269854       25.0376101651      -16.7770050000  MEMB      179             0.0000000000
     20949       179  CHL1      H4B           -53.0632260987       23.9600674139      -16.9008450000  MEMB      179             0.0000000000
     20950       179  CHL1      C5            -53.2409571559       25.0021710584      -15.0528250000  MEMB      179             0.0000000000
     20951       179  CHL1      C6            -52.9086562748       23.8903063707      -14.4033850000  MEMB      179             0.0000000000
     20952       179  CHL1      H6            -52.6235422733       22.9765899630      -14.9454550000  MEMB      179             0.0000000000
     20953       179  CHL1      C7            -52.6271907561       23.8580286201      -12.9201750000  MEMB      179             0.0000000000
     20954       179  CHL1      H7A           -53.1288314716       23.0019520441      -12.4203750000  MEMB      179             0.0000000000
     20955       179  CHL1      H7B           -51.5503178193       23.7816082400      -12.6578150000  MEMB      179             0.0000000000
     20956       179  CHL1      C8            -53.1658857723       25.1262490672      -12.2566650000  MEMB      179             0.0000000000
     20957       179  CHL1      H8            -54.2695534755       25.0190456349      -12.3256350000  MEMB      179             0.0000000000
     20958       179  CHL1      C14           -52.7104354708       25.2158982437      -10.8511250000  MEMB      179             0.0000000000
     20959       179  CHL1      H14           -51.5997112271       25.2284524640      -10.8302350000  MEMB      179             0.0000000000
     20960       179  CHL1      C15           -53.1023796351       23.9650250229       -9.9853550000  MEMB      179             0.0000000000
     20961       179  CHL1      H15A          -54.1515800457       23.6768441109      -10.2099950000  MEMB      179             0.0000000000
     20962       179  CHL1      H15B          -52.3972445150       23.2142259943      -10.4017550000  MEMB      179             0.0000000000
     20963       179  CHL1      C16           -52.7297389237       24.4161345544       -8.5534650000  MEMB      179             0.0000000000
     20964       179  CHL1      H16A          -53.5121083827       24.1900422378       -7.7977450000  MEMB      179             0.0000000000
     20965       179  CHL1      H16B          -51.7557182280       23.9994860971       -8.2187850000  MEMB      179             0.0000000000
     20966       179  CHL1      C17           -52.6215960455       26.0187208123       -8.6436050000  MEMB      179             0.0000000000
     20967       179  CHL1      H17           -51.5284947053       26.1704038767       -8.7717750000  MEMB      179             0.0000000000
     20968       179  CHL1      C13           -53.1879594076       26.4001447999      -10.0578150000  MEMB      179             0.0000000000
     20969       179  CHL1      C18           -54.6961623114       26.4771691872      -10.0674250000  MEMB      179             0.0000000000
     20970       179  CHL1      H18A          -55.2790530574       26.3953303318      -11.0096850000  MEMB      179             0.0000000000
     20971       179  CHL1      H18B          -55.1350058801       25.7329863839       -9.3689150000  MEMB      179             0.0000000000
     20972       179  CHL1      H18C          -55.0402565162       27.4474206435       -9.6496350000  MEMB      179             0.0000000000
     20973       179  CHL1      C12           -52.6037527110       27.6613084768      -10.6932350000  MEMB      179             0.0000000000
     20974       179  CHL1      H12A          -53.0582085325       28.6119954255      -10.3410950000  MEMB      179             0.0000000000
     20975       179  CHL1      H12B          -51.5029145583       27.5326183336      -10.6163950000  MEMB      179             0.0000000000
     20976       179  CHL1      C11           -52.9275456614       27.6922357709      -12.2128850000  MEMB      179             0.0000000000
     20977       179  CHL1      H11A          -53.9861551537       28.0162649566      -12.3060650000  MEMB      179             0.0000000000
     20978       179  CHL1      H11B          -52.5220968079       28.6171756294      -12.6759350000  MEMB      179             0.0000000000
     20979       179  CHL1      C9            -52.7053168248       26.3383359795      -13.0158950000  MEMB      179             0.0000000000
     20980       179  CHL1      H9            -51.6024845393       26.2159796057      -13.0716450000  MEMB      179             0.0000000000
     20981       179  CHL1      C10           -53.3422411780       26.3552594493      -14.4654450000  MEMB      179             0.0000000000
     20982       179  CHL1      C19           -54.8117546498       26.7850248044      -14.3966350000  MEMB      179             0.0000000000
     20983       179  CHL1      H19A          -55.3524043565       26.7765555857      -15.3671750000  MEMB      179             0.0000000000
     20984       179  CHL1      H19B          -55.4096652311       26.2416835027      -13.6339950000  MEMB      179             0.0000000000
     20985       179  CHL1      H19C          -54.8515239723       27.8603866187      -14.1203250000  MEMB      179             0.0000000000
     20986       179  CHL1      C1            -52.4879825792       27.4014242395      -15.3188550000  MEMB      179             0.0000000000
     20987       179  CHL1      H1A           -52.7435844253       28.4004672531      -14.9054550000  MEMB      179             0.0000000000
     20988       179  CHL1      H1B           -51.4168320334       27.1383103243      -15.1856850000  MEMB      179             0.0000000000
     20989       179  CHL1      C2            -52.8240629931       27.3335656559      -16.8337250000  MEMB      179             0.0000000000
     20990       179  CHL1      H2A           -52.2340627646       27.9875733324      -17.5108450000  MEMB      179             0.0000000000
     20991       179  CHL1      H2B           -53.8487668609       27.6770735872      -17.0912350000  MEMB      179             0.0000000000
     20992       179  CHL1      C20           -53.2369391077       26.6771330083       -7.3702850000  MEMB      179             0.0000000000
     20993       179  CHL1      H20           -54.2661900005       26.3271674677       -7.1411750000  MEMB      179             0.0000000000
     20994       179  CHL1      C21           -53.2287540877       28.1903780663       -7.3333750000  MEMB      179             0.0000000000
     20995       179  CHL1      H21A          -53.5782716744       28.5518281222       -6.3426650000  MEMB      179             0.0000000000
     20996       179  CHL1      H21B          -53.9474172534       28.5175776665       -8.1149050000  MEMB      179             0.0000000000
     20997       179  CHL1      H21C          -52.2384900431       28.6485286251       -7.5426250000  MEMB      179             0.0000000000
     20998       179  CHL1      C22           -52.4332167604       26.1982378141       -6.0881250000  MEMB      179             0.0000000000
     20999       179  CHL1      H22A          -52.0457861823       25.2153510881       -6.4318750000  MEMB      179             0.0000000000
     21000       179  CHL1      H22B          -51.4640316259       26.7395893732       -6.0442350000  MEMB      179             0.0000000000
     21001       179  CHL1      C23           -53.1885711361       26.1867148098       -4.7992150000  MEMB      179             0.0000000000
     21002       179  CHL1      H23A          -53.4046649688       27.1610444470       -4.3110450000  MEMB      179             0.0000000000
     21003       179  CHL1      H23B          -54.1722290375       25.6714710563       -4.7634850000  MEMB      179             0.0000000000
     21004       179  CHL1      C24           -52.3410327198       25.4069378890       -3.7540350000  MEMB      179             0.0000000000
     21005       179  CHL1      H24A          -52.1588071363       24.3294028498       -3.9541250000  MEMB      179             0.0000000000
     21006       179  CHL1      H24B          -51.3622985900       25.9316245272       -3.7206250000  MEMB      179             0.0000000000
     21007       179  CHL1      C25           -52.8606198845       25.4780126614       -2.2245050000  MEMB      179             0.0000000000
     21008       179  CHL1      H25           -52.9663199123       26.5482403739       -1.9456450000  MEMB      179             0.0000000000
     21009       179  CHL1      C26           -54.2411829834       24.7198791794       -1.9383150000  MEMB      179             0.0000000000
     21010       179  CHL1      H26A          -54.5976722971       24.6835156575       -0.8866850000  MEMB      179             0.0000000000
     21011       179  CHL1      H26B          -55.0105844122       25.1934728118       -2.5848750000  MEMB      179             0.0000000000
     21012       179  CHL1      H26C          -54.1014214618       23.6776381913       -2.2968150000  MEMB      179             0.0000000000
     21013       179  CHL1      C27           -51.8257856442       24.7757168144       -1.2718850000  MEMB      179             0.0000000000
     21014       179  CHL1      H27A          -51.7438705651       23.6846367396       -1.4646450000  MEMB      179             0.0000000000
     21015       179  CHL1      H27B          -50.8492009919       25.2587922348       -1.4892350000  MEMB      179             0.0000000000
     21016       179  CHL1      H27C          -52.1200811749       25.0787402537       -0.2443250000  MEMB      179             0.0000000000
     21017       180  CHL1      C3            -18.6385119950      -10.1329368603      -17.3209350000  MEMB      180             0.0000000000
     21018       180  CHL1      H3            -18.5489041333       -9.0448363616      -17.1152150000  MEMB      180             0.0000000000
     21019       180  CHL1      O3            -18.5795460050      -10.3802505397      -18.6790650000  MEMB      180             0.0000000000
     21020       180  CHL1      H3'           -17.7268223896       -9.9965760867      -18.8964450000  MEMB      180             0.0000000000
     21021       180  CHL1      C4            -17.4775348712      -10.8888486380      -16.6856150000  MEMB      180             0.0000000000
     21022       180  CHL1      H4A           -17.6294057465      -11.9590190352      -16.9425150000  MEMB      180             0.0000000000
     21023       180  CHL1      H4B           -16.5073623208      -10.5793301157      -17.1297650000  MEMB      180             0.0000000000
     21024       180  CHL1      C5            -17.4691117601      -10.5477938201      -15.1976150000  MEMB      180             0.0000000000
     21025       180  CHL1      C6            -16.3775115084       -9.9546686190      -14.6600150000  MEMB      180             0.0000000000
     21026       180  CHL1      H6            -15.5467655998       -9.6979294464      -15.3337750000  MEMB      180             0.0000000000
     21027       180  CHL1      C7            -16.2108564593       -9.6495838814      -13.2160450000  MEMB      180             0.0000000000
     21028       180  CHL1      H7A           -15.2342886390      -10.1044069816      -12.9444550000  MEMB      180             0.0000000000
     21029       180  CHL1      H7B           -16.1755651087       -8.5614431862      -12.9945950000  MEMB      180             0.0000000000
     21030       180  CHL1      C8            -17.2564678312      -10.2805705053      -12.2687050000  MEMB      180             0.0000000000
     21031       180  CHL1      H8            -17.0831851135      -11.3623199679      -12.0839850000  MEMB      180             0.0000000000
     21032       180  CHL1      C14           -17.2285974995       -9.5764622443      -10.9822250000  MEMB      180             0.0000000000
     21033       180  CHL1      H14           -17.5525256175       -8.5479951800      -11.2499050000  MEMB      180             0.0000000000
     21034       180  CHL1      C15           -15.9452055352       -9.3320367544      -10.2782450000  MEMB      180             0.0000000000
     21035       180  CHL1      H15A          -15.2290752886      -10.1443731358      -10.5264150000  MEMB      180             0.0000000000
     21036       180  CHL1      H15B          -15.3715314709       -8.4503946773      -10.6359250000  MEMB      180             0.0000000000
     21037       180  CHL1      C16           -16.3613134358       -9.1319502385       -8.8249150000  MEMB      180             0.0000000000
     21038       180  CHL1      H16A          -15.9470205532       -9.9314184995       -8.1741250000  MEMB      180             0.0000000000
     21039       180  CHL1      H16B          -15.9908594372       -8.1376382586       -8.4956450000  MEMB      180             0.0000000000
     21040       180  CHL1      C17           -17.8809989610       -9.2820524524       -8.7587850000  MEMB      180             0.0000000000
     21041       180  CHL1      H17           -18.2663733473       -8.2468837606       -8.8780850000  MEMB      180             0.0000000000
     21042       180  CHL1      C13           -18.2362028559      -10.0384025985      -10.0070950000  MEMB      180             0.0000000000
     21043       180  CHL1      C18           -17.9502382761      -11.5088496830       -9.7811450000  MEMB      180             0.0000000000
     21044       180  CHL1      H18A          -18.4420014445      -12.0082371671       -8.9191150000  MEMB      180             0.0000000000
     21045       180  CHL1      H18B          -18.2473592990      -12.1404908332      -10.6454750000  MEMB      180             0.0000000000
     21046       180  CHL1      H18C          -16.9009670009      -11.8369846321       -9.6208850000  MEMB      180             0.0000000000
     21047       180  CHL1      C12           -19.6092117987       -9.7771027260      -10.6339350000  MEMB      180             0.0000000000
     21048       180  CHL1      H12A          -20.3340957262      -10.2282175489       -9.9230450000  MEMB      180             0.0000000000
     21049       180  CHL1      H12B          -19.8559040024       -8.6951383857      -10.6870650000  MEMB      180             0.0000000000
     21050       180  CHL1      C11           -19.7809511587      -10.5225201492      -12.0090650000  MEMB      180             0.0000000000
     21051       180  CHL1      H11A          -19.5343910660      -11.5825547597      -11.7857350000  MEMB      180             0.0000000000
     21052       180  CHL1      H11B          -20.7581873986      -10.2907418225      -12.4840450000  MEMB      180             0.0000000000
     21053       180  CHL1      C9            -18.6111788252      -10.1886599679      -12.9569050000  MEMB      180             0.0000000000
     21054       180  CHL1      H9            -18.7506514278       -9.1134957855      -13.1995850000  MEMB      180             0.0000000000
     21055       180  CHL1      C10           -18.7023283510      -10.8494324632      -14.3915250000  MEMB      180             0.0000000000
     21056       180  CHL1      C19           -18.8145104071      -12.3825713965      -14.1720550000  MEMB      180             0.0000000000
     21057       180  CHL1      H19A          -19.0346566780      -12.8876075891      -15.1368350000  MEMB      180             0.0000000000
     21058       180  CHL1      H19B          -17.8989727916      -12.7726700763      -13.6781550000  MEMB      180             0.0000000000
     21059       180  CHL1      H19C          -19.7188695689      -12.6063870904      -13.5667850000  MEMB      180             0.0000000000
     21060       180  CHL1      C1            -19.9837754541      -10.2240687008      -15.1283150000  MEMB      180             0.0000000000
     21061       180  CHL1      H1A           -20.8590356509      -10.7038530216      -14.6404150000  MEMB      180             0.0000000000
     21062       180  CHL1      H1B           -19.9707001645       -9.1140561165      -15.0834850000  MEMB      180             0.0000000000
     21063       180  CHL1      C2            -19.9464116305      -10.6017548934      -16.6158950000  MEMB      180             0.0000000000
     21064       180  CHL1      H2A           -20.7829085469      -10.0592695734      -17.1061050000  MEMB      180             0.0000000000
     21065       180  CHL1      H2B           -20.1284526595      -11.6775325648      -16.8253650000  MEMB      180             0.0000000000
     21066       180  CHL1      C20           -18.4469895531       -9.7449513358       -7.3167550000  MEMB      180             0.0000000000
     21067       180  CHL1      H20           -17.9967427100      -10.7417404868       -7.1218050000  MEMB      180             0.0000000000
     21068       180  CHL1      C21           -19.9648571469       -9.7199017529       -7.2757150000  MEMB      180             0.0000000000
     21069       180  CHL1      H21A          -20.5130085596      -10.5236914424       -7.8121650000  MEMB      180             0.0000000000
     21070       180  CHL1      H21B          -20.1787200803       -8.7304772852       -7.7335550000  MEMB      180             0.0000000000
     21071       180  CHL1      H21C          -20.4037906522       -9.8594099605       -6.2646750000  MEMB      180             0.0000000000
     21072       180  CHL1      C22           -17.9102390072       -8.8167530488       -6.1724750000  MEMB      180             0.0000000000
     21073       180  CHL1      H22A          -17.0187699979       -8.2442555261       -6.5069250000  MEMB      180             0.0000000000
     21074       180  CHL1      H22B          -18.6567120416       -8.0495542375       -5.8749750000  MEMB      180             0.0000000000
     21075       180  CHL1      C23           -17.5129617562       -9.5127930106       -4.8801950000  MEMB      180             0.0000000000
     21076       180  CHL1      H23A          -18.4138172493       -9.8556572682       -4.3277250000  MEMB      180             0.0000000000
     21077       180  CHL1      H23B          -16.9490781335      -10.4116679383       -5.2093750000  MEMB      180             0.0000000000
     21078       180  CHL1      C24           -16.6355794207       -8.7066103328       -3.9626550000  MEMB      180             0.0000000000
     21079       180  CHL1      H24A          -15.7114526172       -8.3213668939       -4.4442050000  MEMB      180             0.0000000000
     21080       180  CHL1      H24B          -17.2086796804       -7.7945119826       -3.6906750000  MEMB      180             0.0000000000
     21081       180  CHL1      C25           -16.1547603295       -9.4132109635       -2.6948850000  MEMB      180             0.0000000000
     21082       180  CHL1      H25           -16.8302672642       -9.0765087892       -1.8796350000  MEMB      180             0.0000000000
     21083       180  CHL1      C26           -16.1118200665      -10.9290828466       -2.6494050000  MEMB      180             0.0000000000
     21084       180  CHL1      H26A          -17.1370774175      -11.1926044728       -2.9866150000  MEMB      180             0.0000000000
     21085       180  CHL1      H26B          -15.2955556256      -11.3037695566       -3.3033450000  MEMB      180             0.0000000000
     21086       180  CHL1      H26C          -16.0195584982      -11.3764476731       -1.6366450000  MEMB      180             0.0000000000
     21087       180  CHL1      C27           -14.8048957851       -8.9448918458       -2.2671250000  MEMB      180             0.0000000000
     21088       180  CHL1      H27A          -14.6495269653       -7.8462005354       -2.2119550000  MEMB      180             0.0000000000
     21089       180  CHL1      H27B          -14.5460644430       -9.3803183912       -1.2783250000  MEMB      180             0.0000000000
     21090       180  CHL1      H27C          -14.0147312050       -9.2902994068       -2.9675850000  MEMB      180             0.0000000000
     21091       181  CHL1      C3             -5.8369003990      -26.8924139866      -17.2968500000  MEMB      181             0.0000000000
     21092       181  CHL1      H3             -6.6233750289      -27.6461088319      -17.0783900000  MEMB      181             0.0000000000
     21093       181  CHL1      O3             -5.7612954410      -26.5808258134      -18.7031500000  MEMB      181             0.0000000000
     21094       181  CHL1      H3'            -6.6449282266      -26.3316026932      -18.9836500000  MEMB      181             0.0000000000
     21095       181  CHL1      C4             -6.0429421703      -25.6067909500      -16.4321600000  MEMB      181             0.0000000000
     21096       181  CHL1      H4A            -5.2838020532      -24.8433929034      -16.7064600000  MEMB      181             0.0000000000
     21097       181  CHL1      H4B            -7.0633066796      -25.3060004299      -16.7526400000  MEMB      181             0.0000000000
     21098       181  CHL1      C5             -5.9383758582      -25.9770971596      -14.9613000000  MEMB      181             0.0000000000
     21099       181  CHL1      C6             -6.9188153495      -25.6122438434      -14.1863500000  MEMB      181             0.0000000000
     21100       181  CHL1      H6             -7.8014130216      -25.1242007463      -14.6254600000  MEMB      181             0.0000000000
     21101       181  CHL1      C7             -6.8842991045      -25.7182039719      -12.7082800000  MEMB      181             0.0000000000
     21102       181  CHL1      H7A            -7.1635245136      -24.6801633454      -12.4275100000  MEMB      181             0.0000000000
     21103       181  CHL1      H7B            -7.6654019983      -26.3640220609      -12.2531800000  MEMB      181             0.0000000000
     21104       181  CHL1      C8             -5.5010875941      -26.0253779573      -12.1076900000  MEMB      181             0.0000000000
     21105       181  CHL1      H8             -4.8462091422      -25.1279402014      -12.1142700000  MEMB      181             0.0000000000
     21106       181  CHL1      C14            -5.6078067589      -26.4866530458      -10.6785600000  MEMB      181             0.0000000000
     21107       181  CHL1      H14            -6.2934382218      -27.3524086361      -10.7997900000  MEMB      181             0.0000000000
     21108       181  CHL1      C15            -6.3928342384      -25.5555157872       -9.7366800000  MEMB      181             0.0000000000
     21109       181  CHL1      H15A           -5.9221802295      -24.5511042616       -9.6737900000  MEMB      181             0.0000000000
     21110       181  CHL1      H15B           -7.4887570194      -25.4597716910       -9.8919500000  MEMB      181             0.0000000000
     21111       181  CHL1      C16            -5.9972876965      -26.0991760022       -8.3338800000  MEMB      181             0.0000000000
     21112       181  CHL1      H16A           -5.6329033025      -25.3415773943       -7.6075200000  MEMB      181             0.0000000000
     21113       181  CHL1      H16B           -6.8840396307      -26.5534508370       -7.8423400000  MEMB      181             0.0000000000
     21114       181  CHL1      C17            -4.8514181731      -27.2062037647       -8.5814000000  MEMB      181             0.0000000000
     21115       181  CHL1      H17            -5.3398433427      -28.1650374684       -8.8578200000  MEMB      181             0.0000000000
     21116       181  CHL1      C13            -4.3246800856      -26.8416313103       -9.9532700000  MEMB      181             0.0000000000
     21117       181  CHL1      C18            -3.3138917952      -25.6568444011       -9.8335700000  MEMB      181             0.0000000000
     21118       181  CHL1      H18A           -2.2699672215      -25.9914247920       -9.6530300000  MEMB      181             0.0000000000
     21119       181  CHL1      H18B           -3.4057795289      -25.0414181970      -10.7539700000  MEMB      181             0.0000000000
     21120       181  CHL1      H18C           -3.5534177026      -25.0148765887       -8.9590300000  MEMB      181             0.0000000000
     21121       181  CHL1      C12            -3.7286447711      -28.0187799153      -10.7862200000  MEMB      181             0.0000000000
     21122       181  CHL1      H12A           -2.7203823236      -28.3219293126      -10.4315200000  MEMB      181             0.0000000000
     21123       181  CHL1      H12B           -4.4340012811      -28.8769835910      -10.7690600000  MEMB      181             0.0000000000
     21124       181  CHL1      C11            -3.5854066272      -27.6546723871      -12.2939300000  MEMB      181             0.0000000000
     21125       181  CHL1      H11A           -2.8016632243      -26.8731320574      -12.3902200000  MEMB      181             0.0000000000
     21126       181  CHL1      H11B           -3.3238969835      -28.5936911187      -12.8270100000  MEMB      181             0.0000000000
     21127       181  CHL1      C9             -4.8939690645      -27.1383593187      -12.9448600000  MEMB      181             0.0000000000
     21128       181  CHL1      H9             -5.6374828943      -27.9593356047      -13.0315600000  MEMB      181             0.0000000000
     21129       181  CHL1      C10            -4.6892144356      -26.6497372107      -14.4574900000  MEMB      181             0.0000000000
     21130       181  CHL1      C19            -3.4627980044      -25.6867802803      -14.4931700000  MEMB      181             0.0000000000
     21131       181  CHL1      H19A           -3.6987554103      -24.9599160281      -13.6867500000  MEMB      181             0.0000000000
     21132       181  CHL1      H19B           -2.4468467692      -26.1154617255      -14.3575800000  MEMB      181             0.0000000000
     21133       181  CHL1      H19C           -3.4780097332      -25.2390870761      -15.5098600000  MEMB      181             0.0000000000
     21134       181  CHL1      C1             -4.4531344179      -27.8670035778      -15.3800600000  MEMB      181             0.0000000000
     21135       181  CHL1      H1A            -3.4700812982      -28.2978455321      -15.0931800000  MEMB      181             0.0000000000
     21136       181  CHL1      H1B            -5.2753090938      -28.5834508875      -15.1678200000  MEMB      181             0.0000000000
     21137       181  CHL1      C2             -4.4908052243      -27.6007517224      -16.8424800000  MEMB      181             0.0000000000
     21138       181  CHL1      H2A            -4.5085073311      -28.5733754492      -17.3791500000  MEMB      181             0.0000000000
     21139       181  CHL1      H2B            -3.6546471808      -26.9608143639      -17.1969500000  MEMB      181             0.0000000000
     21140       181  CHL1      C20            -3.9484351067      -27.4129932611       -7.3941000000  MEMB      181             0.0000000000
     21141       181  CHL1      H20            -3.4563025416      -26.4209163382       -7.3051800000  MEMB      181             0.0000000000
     21142       181  CHL1      C21            -2.8365384611      -28.4669650759       -7.5642500000  MEMB      181             0.0000000000
     21143       181  CHL1      H21A           -1.9306731247      -27.9839429933       -7.1394900000  MEMB      181             0.0000000000
     21144       181  CHL1      H21B           -2.8145438448      -28.7543135273       -8.6372200000  MEMB      181             0.0000000000
     21145       181  CHL1      H21C           -3.1075982226      -29.4238433111       -7.0690500000  MEMB      181             0.0000000000
     21146       181  CHL1      C22            -4.7200067715      -27.6524278014       -6.0821900000  MEMB      181             0.0000000000
     21147       181  CHL1      H22A           -5.5925528303      -26.9830557400       -5.9243000000  MEMB      181             0.0000000000
     21148       181  CHL1      H22B           -5.1555627197      -28.6708095321       -6.1688200000  MEMB      181             0.0000000000
     21149       181  CHL1      C23            -3.8374062608      -27.6443537803       -4.8361900000  MEMB      181             0.0000000000
     21150       181  CHL1      H23A           -2.9551422252      -28.3126451817       -4.9327900000  MEMB      181             0.0000000000
     21151       181  CHL1      H23B           -3.5455754942      -26.5977870628       -4.6041200000  MEMB      181             0.0000000000
     21152       181  CHL1      C24            -4.5819565702      -28.2445400036       -3.5698100000  MEMB      181             0.0000000000
     21153       181  CHL1      H24A           -5.5639100522      -27.7506832733       -3.4079700000  MEMB      181             0.0000000000
     21154       181  CHL1      H24B           -4.7286951347      -29.3175019439       -3.8179100000  MEMB      181             0.0000000000
     21155       181  CHL1      C25            -3.9275263317      -28.0404104920       -2.1758800000  MEMB      181             0.0000000000
     21156       181  CHL1      H25            -3.7872014578      -26.9461641543       -2.0445500000  MEMB      181             0.0000000000
     21157       181  CHL1      C26            -4.8678121859      -28.5351206221       -0.9785900000  MEMB      181             0.0000000000
     21158       181  CHL1      H26A           -4.3240036808      -28.3753485922       -0.0230400000  MEMB      181             0.0000000000
     21159       181  CHL1      H26B           -5.7946066187      -27.9251698947       -1.0364400000  MEMB      181             0.0000000000
     21160       181  CHL1      H26C           -5.0830567310      -29.6204053713       -1.0793000000  MEMB      181             0.0000000000
     21161       181  CHL1      C27            -2.5815214299      -28.7451333349       -2.0002100000  MEMB      181             0.0000000000
     21162       181  CHL1      H27A           -2.3023456277      -28.5800010813       -0.9376100000  MEMB      181             0.0000000000
     21163       181  CHL1      H27B           -2.7018627718      -29.8495657636       -2.0083100000  MEMB      181             0.0000000000
     21164       181  CHL1      H27C           -1.7399068953      -28.3769035066       -2.6250300000  MEMB      181             0.0000000000
     21165       182  CHL1      C3             37.0984620191       15.6720018187      -17.2708050000  MEMB      182             0.0000000000
     21166       182  CHL1      H3             36.7406192906       14.6621600396      -16.9767150000  MEMB      182             0.0000000000
     21167       182  CHL1      O3             37.0021815809       15.8388729813      -18.7291950000  MEMB      182             0.0000000000
     21168       182  CHL1      H3'            37.5964267262       15.1830708171      -19.1012150000  MEMB      182             0.0000000000
     21169       182  CHL1      C4             36.2473982243       16.7485225509      -16.5899250000  MEMB      182             0.0000000000
     21170       182  CHL1      H4A            36.6454250090       17.7582238440      -16.8273750000  MEMB      182             0.0000000000
     21171       182  CHL1      H4B            35.2239252276       16.6968447779      -17.0190750000  MEMB      182             0.0000000000
     21172       182  CHL1      C5             36.2194486460       16.4768519672      -15.0579750000  MEMB      182             0.0000000000
     21173       182  CHL1      C6             35.0551386681       16.1442619650      -14.4894050000  MEMB      182             0.0000000000
     21174       182  CHL1      H6             34.1701119323       15.9740023854      -15.1200650000  MEMB      182             0.0000000000
     21175       182  CHL1      C7             34.9222532965       15.8239238953      -13.0484650000  MEMB      182             0.0000000000
     21176       182  CHL1      H7A            34.1124299706       16.3729973245      -12.5221350000  MEMB      182             0.0000000000
     21177       182  CHL1      H7B            34.7941528642       14.7212658938      -13.0938950000  MEMB      182             0.0000000000
     21178       182  CHL1      C8             36.2549200017       16.1256601189      -12.2778150000  MEMB      182             0.0000000000
     21179       182  CHL1      H8             36.2973730280       17.2229299252      -12.1089150000  MEMB      182             0.0000000000
     21180       182  CHL1      C14            36.3584804015       15.4577596951      -10.8557550000  MEMB      182             0.0000000000
     21181       182  CHL1      H14            36.5975139299       14.3741923549      -10.9110850000  MEMB      182             0.0000000000
     21182       182  CHL1      C15            35.0735446692       15.4217017829       -9.9348850000  MEMB      182             0.0000000000
     21183       182  CHL1      H15A           34.6804227100       16.4531803613      -10.0607150000  MEMB      182             0.0000000000
     21184       182  CHL1      H15B           34.1903457098       14.8419991784      -10.2787450000  MEMB      182             0.0000000000
     21185       182  CHL1      C16            35.5310229989       15.1995925961       -8.5416950000  MEMB      182             0.0000000000
     21186       182  CHL1      H16A           35.0776338172       15.9925417793       -7.9092450000  MEMB      182             0.0000000000
     21187       182  CHL1      H16B           35.2425720495       14.2478302134       -8.0464550000  MEMB      182             0.0000000000
     21188       182  CHL1      C17            37.1731528191       15.2152368327       -8.6335250000  MEMB      182             0.0000000000
     21189       182  CHL1      H17            37.3901729608       14.1432473724       -8.8286150000  MEMB      182             0.0000000000
     21190       182  CHL1      C13            37.4819177179       15.9887401041       -9.9779450000  MEMB      182             0.0000000000
     21191       182  CHL1      C18            37.3377062305       17.4704289503       -9.7141050000  MEMB      182             0.0000000000
     21192       182  CHL1      H18A           36.3027566415       17.6485360920       -9.3514950000  MEMB      182             0.0000000000
     21193       182  CHL1      H18B           37.8736892626       17.8144910713       -8.8037950000  MEMB      182             0.0000000000
     21194       182  CHL1      H18C           37.5200338556       18.1361186646      -10.5846950000  MEMB      182             0.0000000000
     21195       182  CHL1      C12            38.7698528519       15.7111186593      -10.7187250000  MEMB      182             0.0000000000
     21196       182  CHL1      H12A           39.6786458519       15.9347770713      -10.1200850000  MEMB      182             0.0000000000
     21197       182  CHL1      H12B           38.8287870677       14.6099525417      -10.8539150000  MEMB      182             0.0000000000
     21198       182  CHL1      C11            38.7529034410       16.3288883589      -12.1540450000  MEMB      182             0.0000000000
     21199       182  CHL1      H11A           38.8405716115       17.4261524093      -12.0035350000  MEMB      182             0.0000000000
     21200       182  CHL1      H11B           39.6647381259       16.0056713592      -12.7003050000  MEMB      182             0.0000000000
     21201       182  CHL1      C9             37.5831401723       15.8693451996      -12.9861150000  MEMB      182             0.0000000000
     21202       182  CHL1      H9             37.5883576637       14.7605280411      -13.0555750000  MEMB      182             0.0000000000
     21203       182  CHL1      C10            37.6327836688       16.4589030438      -14.4341550000  MEMB      182             0.0000000000
     21204       182  CHL1      C19            38.3091100535       17.7795280367      -14.4183650000  MEMB      182             0.0000000000
     21205       182  CHL1      H19A           38.0858519638       18.3573107223      -15.3406650000  MEMB      182             0.0000000000
     21206       182  CHL1      H19B           37.9344664682       18.4869133049      -13.6479250000  MEMB      182             0.0000000000
     21207       182  CHL1      H19C           39.4050228523       17.6092774817      -14.3526750000  MEMB      182             0.0000000000
     21208       182  CHL1      C1             38.6395682225       15.5402841917      -15.2650150000  MEMB      182             0.0000000000
     21209       182  CHL1      H1A            39.6650335383       15.6964276015      -14.8670650000  MEMB      182             0.0000000000
     21210       182  CHL1      H1B            38.3180975721       14.4845868085      -15.1365950000  MEMB      182             0.0000000000
     21211       182  CHL1      C2             38.5158854261       15.7809271245      -16.8441750000  MEMB      182             0.0000000000
     21212       182  CHL1      H2A            39.0733240785       15.0380865838      -17.4539050000  MEMB      182             0.0000000000
     21213       182  CHL1      H2B            38.8408878486       16.8231927884      -17.0500350000  MEMB      182             0.0000000000
     21214       182  CHL1      C20            37.8756825249       15.6215597696       -7.3080950000  MEMB      182             0.0000000000
     21215       182  CHL1      H20            37.4043311456       16.6106106160       -7.1239150000  MEMB      182             0.0000000000
     21216       182  CHL1      C21            39.3304335399       15.9137367156       -7.2088850000  MEMB      182             0.0000000000
     21217       182  CHL1      H21A           40.0071419721       15.0394305851       -7.0994850000  MEMB      182             0.0000000000
     21218       182  CHL1      H21B           39.5052321444       16.4999339274       -6.2814450000  MEMB      182             0.0000000000
     21219       182  CHL1      H21C           39.7048112491       16.5266891564       -8.0564950000  MEMB      182             0.0000000000
     21220       182  CHL1      C22            37.3805471429       14.6526801720       -6.1205450000  MEMB      182             0.0000000000
     21221       182  CHL1      H22A           36.2729045333       14.7256585771       -6.0743650000  MEMB      182             0.0000000000
     21222       182  CHL1      H22B           37.6360555025       13.6088045745       -6.4022750000  MEMB      182             0.0000000000
     21223       182  CHL1      C23            37.9101029221       14.9889123875       -4.7240150000  MEMB      182             0.0000000000
     21224       182  CHL1      H23A           38.9899218829       14.7354593297       -4.7878550000  MEMB      182             0.0000000000
     21225       182  CHL1      H23B           37.7857312102       16.0534334701       -4.4313350000  MEMB      182             0.0000000000
     21226       182  CHL1      C24            37.2453333503       14.0706136106       -3.6784050000  MEMB      182             0.0000000000
     21227       182  CHL1      H24A           36.2168083734       14.4183132075       -3.4426950000  MEMB      182             0.0000000000
     21228       182  CHL1      H24B           37.3186554730       13.0376013148       -4.0806750000  MEMB      182             0.0000000000
     21229       182  CHL1      C25            38.0870991609       13.9675068900       -2.3273850000  MEMB      182             0.0000000000
     21230       182  CHL1      H25            39.0079388519       13.4370683654       -2.6514450000  MEMB      182             0.0000000000
     21231       182  CHL1      C26            38.3804674844       15.3994311093       -1.7545650000  MEMB      182             0.0000000000
     21232       182  CHL1      H26A           39.1867610691       15.9052951207       -2.3275550000  MEMB      182             0.0000000000
     21233       182  CHL1      H26B           37.5030850929       16.0777110923       -1.8214050000  MEMB      182             0.0000000000
     21234       182  CHL1      H26C           38.6699801134       15.3055059149       -0.6860750000  MEMB      182             0.0000000000
     21235       182  CHL1      C27            37.2383869156       13.1921026847       -1.2661950000  MEMB      182             0.0000000000
     21236       182  CHL1      H27A           37.0419600873       12.1615883164       -1.6319350000  MEMB      182             0.0000000000
     21237       182  CHL1      H27B           37.8574557799       13.0628070401       -0.3527550000  MEMB      182             0.0000000000
     21238       182  CHL1      H27C           36.2348048958       13.5591742275       -0.9622050000  MEMB      182             0.0000000000
     21239       183  CHL1      C3            -16.5351449635      -54.0252289734      -17.3246100000  MEMB      183             0.0000000000
     21240       183  CHL1      H3            -17.6129199435      -54.2905912164      -17.3726800000  MEMB      183             0.0000000000
     21241       183  CHL1      O3            -16.2415634365      -53.7637882266      -18.6753900000  MEMB      183             0.0000000000
     21242       183  CHL1      H3'           -16.9118530885      -53.1699221221      -19.0212900000  MEMB      183             0.0000000000
     21243       183  CHL1      C4            -16.1866983974      -52.7705522648      -16.5502500000  MEMB      183             0.0000000000
     21244       183  CHL1      H4A           -15.1566066646      -52.3990529560      -16.7379500000  MEMB      183             0.0000000000
     21245       183  CHL1      H4B           -16.8694151152      -51.9773751015      -16.9232100000  MEMB      183             0.0000000000
     21246       183  CHL1      C5            -16.3889525401      -52.9001827684      -15.0267700000  MEMB      183             0.0000000000
     21247       183  CHL1      C6            -17.2136352659      -52.0760311598      -14.2558500000  MEMB      183             0.0000000000
     21248       183  CHL1      H6            -17.6740555659      -51.1919181658      -14.7209900000  MEMB      183             0.0000000000
     21249       183  CHL1      C7            -17.3597405461      -52.2304723334      -12.7579600000  MEMB      183             0.0000000000
     21250       183  CHL1      H7A           -17.1939921754      -51.2438418667      -12.2748400000  MEMB      183             0.0000000000
     21251       183  CHL1      H7B           -18.3518822106      -52.6131183598      -12.4361600000  MEMB      183             0.0000000000
     21252       183  CHL1      C8            -16.2858581979      -53.1775142621      -12.0903400000  MEMB      183             0.0000000000
     21253       183  CHL1      H8            -15.3020439619      -52.6998615846      -11.8946600000  MEMB      183             0.0000000000
     21254       183  CHL1      C14           -16.8510207924      -53.6809363468      -10.7262700000  MEMB      183             0.0000000000
     21255       183  CHL1      H14           -17.7332238366      -54.3163137805      -10.9550300000  MEMB      183             0.0000000000
     21256       183  CHL1      C15           -17.3627394616      -52.6164567068       -9.7649300000  MEMB      183             0.0000000000
     21257       183  CHL1      H15A          -16.5711135271      -51.8413859627       -9.8481400000  MEMB      183             0.0000000000
     21258       183  CHL1      H15B          -18.3482823898      -52.2366612847      -10.1095800000  MEMB      183             0.0000000000
     21259       183  CHL1      C16           -17.3940190190      -53.4023004387       -8.4674100000  MEMB      183             0.0000000000
     21260       183  CHL1      H16A          -16.9362467951      -52.8029411078       -7.6516000000  MEMB      183             0.0000000000
     21261       183  CHL1      H16B          -18.4387668792      -53.5934972837       -8.1414100000  MEMB      183             0.0000000000
     21262       183  CHL1      C17           -16.6461019377      -54.7323652587       -8.6410800000  MEMB      183             0.0000000000
     21263       183  CHL1      H17           -17.3866401395      -55.5150666039       -8.9118100000  MEMB      183             0.0000000000
     21264       183  CHL1      C13           -15.8625580613      -54.5497676559       -9.9811800000  MEMB      183             0.0000000000
     21265       183  CHL1      C18           -14.5468052353      -53.8165049024       -9.6833400000  MEMB      183             0.0000000000
     21266       183  CHL1      H18A          -14.7076282567      -52.9039305892       -9.0704200000  MEMB      183             0.0000000000
     21267       183  CHL1      H18B          -13.9297461438      -54.4618659332       -9.0222300000  MEMB      183             0.0000000000
     21268       183  CHL1      H18C          -13.8534503687      -53.6052966335      -10.5253400000  MEMB      183             0.0000000000
     21269       183  CHL1      C12           -15.6826669438      -55.8252207068      -10.8756400000  MEMB      183             0.0000000000
     21270       183  CHL1      H12A          -14.8527876321      -56.4247317837      -10.4441100000  MEMB      183             0.0000000000
     21271       183  CHL1      H12B          -16.6327126778      -56.4001740671      -10.9096100000  MEMB      183             0.0000000000
     21272       183  CHL1      C11           -15.2691788087      -55.5427753579      -12.2916800000  MEMB      183             0.0000000000
     21273       183  CHL1      H11A          -14.2139839209      -55.1968769986      -12.2565800000  MEMB      183             0.0000000000
     21274       183  CHL1      H11B          -15.2437091344      -56.4388726744      -12.9479400000  MEMB      183             0.0000000000
     21275       183  CHL1      C9            -16.1090680947      -54.4235092783      -12.9583500000  MEMB      183             0.0000000000
     21276       183  CHL1      H9            -17.1248093489      -54.8430730548      -13.1213400000  MEMB      183             0.0000000000
     21277       183  CHL1      C10           -15.6278389845      -54.1330962448      -14.4086500000  MEMB      183             0.0000000000
     21278       183  CHL1      C19           -14.0766667449      -53.8529631302      -14.4927900000  MEMB      183             0.0000000000
     21279       183  CHL1      H19A          -13.5541949077      -54.7820725746      -14.1796100000  MEMB      183             0.0000000000
     21280       183  CHL1      H19B          -13.8234549835      -53.5923311652      -15.5426900000  MEMB      183             0.0000000000
     21281       183  CHL1      H19C          -13.6103350176      -53.0984491265      -13.8237900000  MEMB      183             0.0000000000
     21282       183  CHL1      C1            -15.9795174147      -55.3746345534      -15.2877800000  MEMB      183             0.0000000000
     21283       183  CHL1      H1A           -15.3407770505      -56.2110569064      -14.9317800000  MEMB      183             0.0000000000
     21284       183  CHL1      H1B           -17.0274640316      -55.6919036712      -15.0993900000  MEMB      183             0.0000000000
     21285       183  CHL1      C2            -15.6571134424      -55.1861233319      -16.8295900000  MEMB      183             0.0000000000
     21286       183  CHL1      H2A           -15.8972052226      -56.1073742087      -17.4022800000  MEMB      183             0.0000000000
     21287       183  CHL1      H2B           -14.5857133652      -54.9720327293      -17.0310100000  MEMB      183             0.0000000000
     21288       183  CHL1      C20           -15.8358413875      -55.2213880471       -7.3629800000  MEMB      183             0.0000000000
     21289       183  CHL1      H20           -15.2141957791      -54.3083105682       -7.2438800000  MEMB      183             0.0000000000
     21290       183  CHL1      C21           -14.9719411384      -56.4871567702       -7.4402300000  MEMB      183             0.0000000000
     21291       183  CHL1      H21A          -14.5181314306      -56.8638611779       -6.4987100000  MEMB      183             0.0000000000
     21292       183  CHL1      H21B          -14.1528762042      -56.1990039450       -8.1333500000  MEMB      183             0.0000000000
     21293       183  CHL1      H21C          -15.5007026839      -57.3471155154       -7.9041400000  MEMB      183             0.0000000000
     21294       183  CHL1      C22           -16.7429429351      -55.1367791485       -6.1129300000  MEMB      183             0.0000000000
     21295       183  CHL1      H22A          -17.4230566938      -54.2741365700       -6.2791100000  MEMB      183             0.0000000000
     21296       183  CHL1      H22B          -17.3018893562      -56.0941682061       -6.0401100000  MEMB      183             0.0000000000
     21297       183  CHL1      C23           -15.9875502827      -54.9913531138       -4.7772200000  MEMB      183             0.0000000000
     21298       183  CHL1      H23A          -15.8892454096      -55.9706202253       -4.2617600000  MEMB      183             0.0000000000
     21299       183  CHL1      H23B          -14.9573509841      -54.7475984211       -5.1142400000  MEMB      183             0.0000000000
     21300       183  CHL1      C24           -16.6629537869      -54.0073238442       -3.7760700000  MEMB      183             0.0000000000
     21301       183  CHL1      H24A          -16.7083130028      -53.0537931869       -4.3444400000  MEMB      183             0.0000000000
     21302       183  CHL1      H24B          -17.6725912319      -54.3790699502       -3.4990400000  MEMB      183             0.0000000000
     21303       183  CHL1      C25           -15.9849750876      -53.9618003760       -2.3977100000  MEMB      183             0.0000000000
     21304       183  CHL1      H25           -15.9485342500      -54.9992415161       -2.0018600000  MEMB      183             0.0000000000
     21305       183  CHL1      C26           -14.6073225376      -53.4081718249       -2.4063000000  MEMB      183             0.0000000000
     21306       183  CHL1      H26A          -14.1086061468      -53.4459055968       -1.4142400000  MEMB      183             0.0000000000
     21307       183  CHL1      H26B          -13.9518629704      -53.9644006462       -3.1100700000  MEMB      183             0.0000000000
     21308       183  CHL1      H26C          -14.6143966673      -52.3771995691       -2.8202600000  MEMB      183             0.0000000000
     21309       183  CHL1      C27           -16.9038739296      -53.0990946958       -1.4059500000  MEMB      183             0.0000000000
     21310       183  CHL1      H27A          -16.8300029796      -52.0002069405       -1.5519400000  MEMB      183             0.0000000000
     21311       183  CHL1      H27B          -17.9544554633      -53.4598875831       -1.4271900000  MEMB      183             0.0000000000
     21312       183  CHL1      H27C          -16.6151799246      -53.2809464969       -0.3486400000  MEMB      183             0.0000000000
     21313       184  CHL1      C3             28.1191271516      -19.7126376981      -17.3790150000  MEMB      184             0.0000000000
     21314       184  CHL1      H3             28.8066324071      -20.5808352840      -17.4678250000  MEMB      184             0.0000000000
     21315       184  CHL1      O3             27.6609142484      -19.2664641019      -18.6209850000  MEMB      184             0.0000000000
     21316       184  CHL1      H3'            27.0705417185      -19.9485440862      -18.9493750000  MEMB      184             0.0000000000
     21317       184  CHL1      C4             26.9340528880      -20.2214949813      -16.6270350000  MEMB      184             0.0000000000
     21318       184  CHL1      H4A            26.0855389566      -19.5524461621      -16.8853550000  MEMB      184             0.0000000000
     21319       184  CHL1      H4B            26.5872264669      -21.1604564662      -17.1090950000  MEMB      184             0.0000000000
     21320       184  CHL1      C5             27.0724235314      -20.4903011607      -15.1529950000  MEMB      184             0.0000000000
     21321       184  CHL1      C6             26.7183367772      -21.7291966216      -14.6747650000  MEMB      184             0.0000000000
     21322       184  CHL1      H6             26.2463345316      -22.5024763334      -15.2986550000  MEMB      184             0.0000000000
     21323       184  CHL1      C7             26.7405080685      -21.9900830113      -13.2308650000  MEMB      184             0.0000000000
     21324       184  CHL1      H7A            25.8185692768      -22.5567893872      -12.9794850000  MEMB      184             0.0000000000
     21325       184  CHL1      H7B            27.5506558982      -22.7107502685      -12.9887150000  MEMB      184             0.0000000000
     21326       184  CHL1      C8             26.9943076866      -20.7760927235      -12.2431950000  MEMB      184             0.0000000000
     21327       184  CHL1      H8             26.1265896476      -20.0824914654      -12.2603650000  MEMB      184             0.0000000000
     21328       184  CHL1      C14            27.4811801991      -21.2185971518      -10.8726650000  MEMB      184             0.0000000000
     21329       184  CHL1      H14            28.3596036852      -21.8663227574      -11.0803350000  MEMB      184             0.0000000000
     21330       184  CHL1      C15            26.5904795731      -22.2374327586      -10.1213050000  MEMB      184             0.0000000000
     21331       184  CHL1      H15A           25.5402562335      -21.9669905544      -10.3625650000  MEMB      184             0.0000000000
     21332       184  CHL1      H15B           26.8228322905      -23.2481037047      -10.5198950000  MEMB      184             0.0000000000
     21333       184  CHL1      C16            26.9863786977      -22.0716158812       -8.6671950000  MEMB      184             0.0000000000
     21334       184  CHL1      H16A           26.1035700834      -21.7118103682       -8.0966650000  MEMB      184             0.0000000000
     21335       184  CHL1      H16B           27.3689409269      -23.0050991141       -8.2018250000  MEMB      184             0.0000000000
     21336       184  CHL1      C17            28.1305145564      -20.9770357319       -8.6478050000  MEMB      184             0.0000000000
     21337       184  CHL1      H17            29.0845300027      -21.5451442233       -8.6855750000  MEMB      184             0.0000000000
     21338       184  CHL1      C13            27.8675736739      -20.1664488847       -9.9000550000  MEMB      184             0.0000000000
     21339       184  CHL1      C18            26.6821285083      -19.2447343409       -9.6852350000  MEMB      184             0.0000000000
     21340       184  CHL1      H18A           26.4008310259      -18.6461925839      -10.5779550000  MEMB      184             0.0000000000
     21341       184  CHL1      H18B           25.7978501036      -19.7570265738       -9.2494350000  MEMB      184             0.0000000000
     21342       184  CHL1      H18C           27.0151229654      -18.4846625518       -8.9465050000  MEMB      184             0.0000000000
     21343       184  CHL1      C12            29.1955041344      -19.5948495264      -10.4892150000  MEMB      184             0.0000000000
     21344       184  CHL1      H12A           29.5452867079      -18.7155074927       -9.9072050000  MEMB      184             0.0000000000
     21345       184  CHL1      H12B           29.9276533883      -20.4252310587      -10.3956550000  MEMB      184             0.0000000000
     21346       184  CHL1      C11            28.8178555188      -19.0105665777      -11.9077550000  MEMB      184             0.0000000000
     21347       184  CHL1      H11A           28.3157528367      -18.0288091063      -11.7721950000  MEMB      184             0.0000000000
     21348       184  CHL1      H11B           29.7700366800      -18.7615000469      -12.4231650000  MEMB      184             0.0000000000
     21349       184  CHL1      C9             28.1252407810      -19.9965159733      -12.8350050000  MEMB      184             0.0000000000
     21350       184  CHL1      H9             28.8682607282      -20.8071737476      -12.9933450000  MEMB      184             0.0000000000
     21351       184  CHL1      C10            27.7032995110      -19.3851223613      -14.2499850000  MEMB      184             0.0000000000
     21352       184  CHL1      C19            26.7463685530      -18.2387628511      -14.1224550000  MEMB      184             0.0000000000
     21353       184  CHL1      H19A           25.8938609124      -18.4737074772      -13.4498950000  MEMB      184             0.0000000000
     21354       184  CHL1      H19B           27.2610017194      -17.3648281455      -13.6689050000  MEMB      184             0.0000000000
     21355       184  CHL1      H19C           26.3870556850      -17.7914963571      -15.0738550000  MEMB      184             0.0000000000
     21356       184  CHL1      C1             28.9405186874      -19.0289564951      -15.0530750000  MEMB      184             0.0000000000
     21357       184  CHL1      H1A            29.4083690482      -18.2465058755      -14.4180850000  MEMB      184             0.0000000000
     21358       184  CHL1      H1B            29.6653808674      -19.8704143019      -15.0241450000  MEMB      184             0.0000000000
     21359       184  CHL1      C2             28.7275679909      -18.5578920854      -16.5342350000  MEMB      184             0.0000000000
     21360       184  CHL1      H2A            29.6049878059      -18.1649925656      -17.0910750000  MEMB      184             0.0000000000
     21361       184  CHL1      H2B            27.9531136381      -17.7647332693      -16.6079750000  MEMB      184             0.0000000000
     21362       184  CHL1      C20            28.1346358379      -20.2382779484       -7.3060050000  MEMB      184             0.0000000000
     21363       184  CHL1      H20            27.0949053872      -19.9107719318       -7.0914950000  MEMB      184             0.0000000000
     21364       184  CHL1      C21            29.1076500384      -19.0388519345       -7.2904150000  MEMB      184             0.0000000000
     21365       184  CHL1      H21A           30.0480395611      -19.4480434517       -7.7176650000  MEMB      184             0.0000000000
     21366       184  CHL1      H21B           29.3572868373      -18.6906263606       -6.2653550000  MEMB      184             0.0000000000
     21367       184  CHL1      H21C           28.7741751046      -18.1624730695       -7.8862950000  MEMB      184             0.0000000000
     21368       184  CHL1      C22            28.3987997077      -21.2013024510       -6.1099650000  MEMB      184             0.0000000000
     21369       184  CHL1      H22A           27.5878332749      -21.9558603195       -6.1952950000  MEMB      184             0.0000000000
     21370       184  CHL1      H22B           29.3036830149      -21.8352440960       -6.2267350000  MEMB      184             0.0000000000
     21371       184  CHL1      C23            28.2666178694      -20.5138074186       -4.6844450000  MEMB      184             0.0000000000
     21372       184  CHL1      H23A           29.1851861275      -19.9506766829       -4.4134750000  MEMB      184             0.0000000000
     21373       184  CHL1      H23B           27.4177661804      -19.8019939162       -4.7687350000  MEMB      184             0.0000000000
     21374       184  CHL1      C24            27.9877126991      -21.6181560822       -3.5858050000  MEMB      184             0.0000000000
     21375       184  CHL1      H24A           27.0658818926      -22.1561665814       -3.8941750000  MEMB      184             0.0000000000
     21376       184  CHL1      H24B           28.8173924514      -22.3545167808       -3.6467450000  MEMB      184             0.0000000000
     21377       184  CHL1      C25            27.6774162623      -21.0777826906       -2.1508250000  MEMB      184             0.0000000000
     21378       184  CHL1      H25            26.9423772129      -20.2632942411       -2.3259050000  MEMB      184             0.0000000000
     21379       184  CHL1      C26            27.1648543234      -22.1110023350       -1.2067150000  MEMB      184             0.0000000000
     21380       184  CHL1      H26A           27.0274207420      -21.5343139255       -0.2671050000  MEMB      184             0.0000000000
     21381       184  CHL1      H26B           26.1991091804      -22.5566027982       -1.5278050000  MEMB      184             0.0000000000
     21382       184  CHL1      H26C           27.8730886618      -22.9394869970       -0.9914550000  MEMB      184             0.0000000000
     21383       184  CHL1      C27            28.8596311736      -20.3977215399       -1.5112150000  MEMB      184             0.0000000000
     21384       184  CHL1      H27A           29.3962862170      -19.7192352918       -2.2083450000  MEMB      184             0.0000000000
     21385       184  CHL1      H27B           28.4399814660      -19.7612828718       -0.7030250000  MEMB      184             0.0000000000
     21386       184  CHL1      H27C           29.6415592662      -21.0164330791       -1.0212150000  MEMB      184             0.0000000000
     21387       185  CHL1      C3            -33.5771724485       36.6932175789      -17.3392850000  MEMB      185             0.0000000000
     21388       185  CHL1      H3            -34.6355041103       37.0063145780      -17.4666650000  MEMB      185             0.0000000000
     21389       185  CHL1      O3            -33.1072037515       36.3639340211      -18.6607150000  MEMB      185             0.0000000000
     21390       185  CHL1      H3'           -33.4471545534       37.0943594951      -19.1827450000  MEMB      185             0.0000000000
     21391       185  CHL1      C4            -32.8363984675       37.9427545317      -16.8743250000  MEMB      185             0.0000000000
     21392       185  CHL1      H4A           -31.7530851626       37.6963068147      -16.8789450000  MEMB      185             0.0000000000
     21393       185  CHL1      H4B           -32.9336820954       38.7533636926      -17.6278250000  MEMB      185             0.0000000000
     21394       185  CHL1      C5            -33.1394612687       38.3769135429      -15.4189050000  MEMB      185             0.0000000000
     21395       185  CHL1      C6            -33.5644685945       39.6209251611      -15.1428050000  MEMB      185             0.0000000000
     21396       185  CHL1      H6            -33.5927694686       40.3847969209      -15.9338150000  MEMB      185             0.0000000000
     21397       185  CHL1      C7            -33.7490320872       40.0386263816      -13.7169250000  MEMB      185             0.0000000000
     21398       185  CHL1      H7A           -33.5768156048       41.1279819633      -13.5828850000  MEMB      185             0.0000000000
     21399       185  CHL1      H7B           -34.8354421705       39.8352614371      -13.6042650000  MEMB      185             0.0000000000
     21400       185  CHL1      C8            -33.1342632829       39.1400060811      -12.6778650000  MEMB      185             0.0000000000
     21401       185  CHL1      H8            -32.0547670260       39.3519928296      -12.8330250000  MEMB      185             0.0000000000
     21402       185  CHL1      C14           -33.4114933212       39.4560319540      -11.1945150000  MEMB      185             0.0000000000
     21403       185  CHL1      H14           -34.5219640943       39.4220687810      -11.1900650000  MEMB      185             0.0000000000
     21404       185  CHL1      C15           -33.0238407765       40.8758476528      -10.6544150000  MEMB      185             0.0000000000
     21405       185  CHL1      H15A          -32.0655110639       41.2743329631      -11.0508150000  MEMB      185             0.0000000000
     21406       185  CHL1      H15B          -33.7655739804       41.5901267723      -11.0715250000  MEMB      185             0.0000000000
     21407       185  CHL1      C16           -32.8804223607       40.7950472931       -9.1406950000  MEMB      185             0.0000000000
     21408       185  CHL1      H16A          -31.8582198550       41.1339543649       -8.8676350000  MEMB      185             0.0000000000
     21409       185  CHL1      H16B          -33.5592839144       41.4269347086       -8.5289850000  MEMB      185             0.0000000000
     21410       185  CHL1      C17           -33.1470305568       39.1771406743       -8.8662050000  MEMB      185             0.0000000000
     21411       185  CHL1      H17           -34.2321844102       39.0060785700       -9.0320150000  MEMB      185             0.0000000000
     21412       185  CHL1      C13           -32.6617919454       38.4910132153      -10.2263750000  MEMB      185             0.0000000000
     21413       185  CHL1      C18           -31.1547011580       38.6683387931      -10.4215050000  MEMB      185             0.0000000000
     21414       185  CHL1      H18A          -30.6851904248       38.0014869962       -9.6670650000  MEMB      185             0.0000000000
     21415       185  CHL1      H18B          -30.8103104773       38.5210302018      -11.4674650000  MEMB      185             0.0000000000
     21416       185  CHL1      H18C          -30.8352714088       39.6905178509      -10.1258250000  MEMB      185             0.0000000000
     21417       185  CHL1      C12           -33.1075174067       37.0955940504      -10.3841550000  MEMB      185             0.0000000000
     21418       185  CHL1      H12A          -32.6092308117       36.2823974408       -9.8142750000  MEMB      185             0.0000000000
     21419       185  CHL1      H12B          -34.2094558712       37.0882412947      -10.2427550000  MEMB      185             0.0000000000
     21420       185  CHL1      C11           -32.9933342303       36.6542836879      -11.8285650000  MEMB      185             0.0000000000
     21421       185  CHL1      H11A          -31.9028691833       36.4416764184      -11.8313850000  MEMB      185             0.0000000000
     21422       185  CHL1      H11B          -33.4816455449       35.6775203419      -12.0330250000  MEMB      185             0.0000000000
     21423       185  CHL1      C9            -33.4115564075       37.6171141207      -12.9411550000  MEMB      185             0.0000000000
     21424       185  CHL1      H9            -34.5181412698       37.5203800835      -12.9202750000  MEMB      185             0.0000000000
     21425       185  CHL1      C10           -32.9360926423       37.2025779457      -14.4214850000  MEMB      185             0.0000000000
     21426       185  CHL1      C19           -31.3604831668       36.8512471542      -14.3903050000  MEMB      185             0.0000000000
     21427       185  CHL1      H19A          -30.7790245752       37.7332256275      -14.0463050000  MEMB      185             0.0000000000
     21428       185  CHL1      H19B          -31.3268588697       36.0304742541      -13.6422850000  MEMB      185             0.0000000000
     21429       185  CHL1      H19C          -30.9421335001       36.5084312870      -15.3607550000  MEMB      185             0.0000000000
     21430       185  CHL1      C1            -33.7428350519       35.9820407747      -14.9221850000  MEMB      185             0.0000000000
     21431       185  CHL1      H1A           -33.6176827168       35.0976666108      -14.2614750000  MEMB      185             0.0000000000
     21432       185  CHL1      H1B           -34.8123800967       36.2662582510      -14.8241850000  MEMB      185             0.0000000000
     21433       185  CHL1      C2            -33.3660463479       35.4652378638      -16.3699650000  MEMB      185             0.0000000000
     21434       185  CHL1      H2A           -33.9734253522       34.6093363420      -16.7344450000  MEMB      185             0.0000000000
     21435       185  CHL1      H2B           -32.2759238475       35.2625685599      -16.4397650000  MEMB      185             0.0000000000
     21436       185  CHL1      C20           -32.7703383072       38.6915161725       -7.3966150000  MEMB      185             0.0000000000
     21437       185  CHL1      H20           -33.4894197006       39.2719296860       -6.7798750000  MEMB      185             0.0000000000
     21438       185  CHL1      C21           -31.3281636805       39.1307700937       -6.9916450000  MEMB      185             0.0000000000
     21439       185  CHL1      H21A          -31.2984442986       40.2382627470       -7.0746750000  MEMB      185             0.0000000000
     21440       185  CHL1      H21B          -30.5659205442       38.7181978936       -7.6866950000  MEMB      185             0.0000000000
     21441       185  CHL1      H21C          -31.0068584621       38.7986485228       -5.9813050000  MEMB      185             0.0000000000
     21442       185  CHL1      C22           -33.2429270191       37.2123156138       -7.0360050000  MEMB      185             0.0000000000
     21443       185  CHL1      H22A          -34.2504046750       37.0793931785       -7.4850550000  MEMB      185             0.0000000000
     21444       185  CHL1      H22B          -32.5455031823       36.6340187585       -7.6790450000  MEMB      185             0.0000000000
     21445       185  CHL1      C23           -33.1548933268       36.7851343484       -5.5673450000  MEMB      185             0.0000000000
     21446       185  CHL1      H23A          -32.2538415667       37.2910118216       -5.1593050000  MEMB      185             0.0000000000
     21447       185  CHL1      H23B          -34.0279080857       37.1273724307       -4.9714750000  MEMB      185             0.0000000000
     21448       185  CHL1      C24           -32.9609112466       35.2246115722       -5.2884950000  MEMB      185             0.0000000000
     21449       185  CHL1      H24A          -33.8839317157       34.7062504769       -5.6256550000  MEMB      185             0.0000000000
     21450       185  CHL1      H24B          -32.0754497901       34.9976744188       -5.9199850000  MEMB      185             0.0000000000
     21451       185  CHL1      C25           -32.7710305232       34.8785474374       -3.8269350000  MEMB      185             0.0000000000
     21452       185  CHL1      H25           -33.7355427875       34.9033311466       -3.2760950000  MEMB      185             0.0000000000
     21453       185  CHL1      C26           -32.1641156004       33.4448140569       -3.5937450000  MEMB      185             0.0000000000
     21454       185  CHL1      H26A          -32.3239909555       33.1837395219       -2.5257550000  MEMB      185             0.0000000000
     21455       185  CHL1      H26B          -32.6783152635       32.6856409807       -4.2211150000  MEMB      185             0.0000000000
     21456       185  CHL1      H26C          -31.0926766943       33.4072306419       -3.8851650000  MEMB      185             0.0000000000
     21457       185  CHL1      C27           -31.7097227551       35.7408020379       -3.0435950000  MEMB      185             0.0000000000
     21458       185  CHL1      H27A          -31.5894316764       35.4502710693       -1.9780250000  MEMB      185             0.0000000000
     21459       185  CHL1      H27B          -30.7124791840       35.5674601581       -3.5016150000  MEMB      185             0.0000000000
     21460       185  CHL1      H27C          -31.9563154529       36.8240663544       -3.0509150000  MEMB      185             0.0000000000
     21461       186  CHL1      C3             24.8960250622      -11.3065915246      -17.3162750000  MEMB      186             0.0000000000
     21462       186  CHL1      H3             25.0146691171      -10.2579251707      -16.9690650000  MEMB      186             0.0000000000
     21463       186  CHL1      O3             25.1364125378      -11.3302302754      -18.6837250000  MEMB      186             0.0000000000
     21464       186  CHL1      H3'            24.2842025850      -11.1356962518      -19.0805950000  MEMB      186             0.0000000000
     21465       186  CHL1      C4             26.0161506641      -12.1174797524      -16.6728850000  MEMB      186             0.0000000000
     21466       186  CHL1      H4A            26.0329610271      -13.1715003063      -17.0237150000  MEMB      186             0.0000000000
     21467       186  CHL1      H4B            26.9630385941      -11.6596928897      -17.0308450000  MEMB      186             0.0000000000
     21468       186  CHL1      C5             25.8158438824      -12.1221370167      -15.2387250000  MEMB      186             0.0000000000
     21469       186  CHL1      C6             26.7515045126      -11.7612591909      -14.3748450000  MEMB      186             0.0000000000
     21470       186  CHL1      H6             27.6807011865      -11.2759053342      -14.7080450000  MEMB      186             0.0000000000
     21471       186  CHL1      C7             26.6831840643      -11.7826448976      -12.8541650000  MEMB      186             0.0000000000
     21472       186  CHL1      H7A            27.6212557325      -12.1493825212      -12.3852950000  MEMB      186             0.0000000000
     21473       186  CHL1      H7B            26.4741312466      -10.7856560209      -12.4107250000  MEMB      186             0.0000000000
     21474       186  CHL1      C8             25.6042640330      -12.7753390894      -12.4637750000  MEMB      186             0.0000000000
     21475       186  CHL1      H8             26.0563002388      -13.7854021138      -12.5624650000  MEMB      186             0.0000000000
     21476       186  CHL1      C14            25.2779848333      -12.6943846041      -10.9470850000  MEMB      186             0.0000000000
     21477       186  CHL1      H14            24.8132925104      -11.6946745696      -10.8094050000  MEMB      186             0.0000000000
     21478       186  CHL1      C15            26.3741968477      -12.6425833699       -9.8190950000  MEMB      186             0.0000000000
     21479       186  CHL1      H15A           27.1236273512      -13.3451645486      -10.2422550000  MEMB      186             0.0000000000
     21480       186  CHL1      H15B           26.7374537809      -11.5938733413       -9.7684150000  MEMB      186             0.0000000000
     21481       186  CHL1      C16            25.6418711136      -13.0533749468       -8.5464050000  MEMB      186             0.0000000000
     21482       186  CHL1      H16A           26.0300812058      -14.0798243324       -8.3732050000  MEMB      186             0.0000000000
     21483       186  CHL1      H16B           25.9418795654      -12.4268463136       -7.6793550000  MEMB      186             0.0000000000
     21484       186  CHL1      C17            24.1584326507      -13.2921572018       -8.9114150000  MEMB      186             0.0000000000
     21485       186  CHL1      H17            23.6782501326      -12.3086112587       -8.7206550000  MEMB      186             0.0000000000
     21486       186  CHL1      C13            24.1984622489      -13.6418798641      -10.3975050000  MEMB      186             0.0000000000
     21487       186  CHL1      C18            24.6028681298      -15.0746584985      -10.5317450000  MEMB      186             0.0000000000
     21488       186  CHL1      H18A           25.6306784763      -15.3015571485      -10.1761550000  MEMB      186             0.0000000000
     21489       186  CHL1      H18B           23.8790706144      -15.8224175194      -10.1427750000  MEMB      186             0.0000000000
     21490       186  CHL1      H18C           24.8328537542      -15.3998594444      -11.5688850000  MEMB      186             0.0000000000
     21491       186  CHL1      C12            22.8403479517      -13.3846668421      -11.1268150000  MEMB      186             0.0000000000
     21492       186  CHL1      H12A           21.9558938387      -13.9794551332      -10.8133050000  MEMB      186             0.0000000000
     21493       186  CHL1      H12B           22.6816965830      -12.2996773424      -10.9480750000  MEMB      186             0.0000000000
     21494       186  CHL1      C11            23.1347263384      -13.5609240165      -12.6446650000  MEMB      186             0.0000000000
     21495       186  CHL1      H11A           23.3015518127      -14.6497210479      -12.7896450000  MEMB      186             0.0000000000
     21496       186  CHL1      H11B           22.2237466361      -13.1644839775      -13.1419250000  MEMB      186             0.0000000000
     21497       186  CHL1      C9             24.2606624526      -12.6532253537      -13.2281450000  MEMB      186             0.0000000000
     21498       186  CHL1      H9             24.0024285587      -11.5840391823      -13.0717050000  MEMB      186             0.0000000000
     21499       186  CHL1      C10            24.5232842335      -12.7471613887      -14.7556050000  MEMB      186             0.0000000000
     21500       186  CHL1      C19            24.4979674763      -14.2539081298      -15.1828150000  MEMB      186             0.0000000000
     21501       186  CHL1      H19A           25.2448397147      -14.8809149756      -14.6504850000  MEMB      186             0.0000000000
     21502       186  CHL1      H19B           23.4713921376      -14.6764942069      -15.1394350000  MEMB      186             0.0000000000
     21503       186  CHL1      H19C           24.7386529103      -14.3699701039      -16.2612050000  MEMB      186             0.0000000000
     21504       186  CHL1      C1             23.3323764593      -12.0493731109      -15.4174950000  MEMB      186             0.0000000000
     21505       186  CHL1      H1A            22.3907669289      -12.6261266256      -15.2947750000  MEMB      186             0.0000000000
     21506       186  CHL1      H1B            23.0352277924      -11.0790582789      -14.9652650000  MEMB      186             0.0000000000
     21507       186  CHL1      C2             23.5180818220      -11.8251646738      -16.9225750000  MEMB      186             0.0000000000
     21508       186  CHL1      H2A            22.6541630159      -11.2566878987      -17.3285150000  MEMB      186             0.0000000000
     21509       186  CHL1      H2B            23.3694201695      -12.7903219699      -17.4523750000  MEMB      186             0.0000000000
     21510       186  CHL1      C20            23.5317936972      -14.3311393645       -7.9138450000  MEMB      186             0.0000000000
     21511       186  CHL1      H20            24.2056036889      -15.1920538908       -8.1116450000  MEMB      186             0.0000000000
     21512       186  CHL1      C21            22.0761199013      -14.5411793984       -8.2720650000  MEMB      186             0.0000000000
     21513       186  CHL1      H21A           21.5029255330      -14.9157604602       -7.3971650000  MEMB      186             0.0000000000
     21514       186  CHL1      H21B           21.8994467086      -15.1947490591       -9.1529450000  MEMB      186             0.0000000000
     21515       186  CHL1      H21C           21.6270786767      -13.5816754819       -8.6067850000  MEMB      186             0.0000000000
     21516       186  CHL1      C22            23.6861536465      -13.9999899724       -6.4146950000  MEMB      186             0.0000000000
     21517       186  CHL1      H22A           24.5697890505      -13.3950552427       -6.1187650000  MEMB      186             0.0000000000
     21518       186  CHL1      H22B           22.8175352630      -13.3939777891       -6.0791750000  MEMB      186             0.0000000000
     21519       186  CHL1      C23            23.6903041953      -15.2503811433       -5.4735250000  MEMB      186             0.0000000000
     21520       186  CHL1      H23A           23.3623819371      -14.8429570312       -4.4933250000  MEMB      186             0.0000000000
     21521       186  CHL1      H23B           22.9310577542      -15.9357251262       -5.9073050000  MEMB      186             0.0000000000
     21522       186  CHL1      C24            25.0087806870      -15.9271512733       -5.2977850000  MEMB      186             0.0000000000
     21523       186  CHL1      H24A           25.2736859067      -16.7669075460       -5.9752450000  MEMB      186             0.0000000000
     21524       186  CHL1      H24B           25.8222879301      -15.1735834012       -5.3660650000  MEMB      186             0.0000000000
     21525       186  CHL1      C25            25.2877866806      -16.6283941337       -3.8954950000  MEMB      186             0.0000000000
     21526       186  CHL1      H25            25.0978834558      -15.9330960853       -3.0500250000  MEMB      186             0.0000000000
     21527       186  CHL1      C26            24.3000969546      -17.7463477284       -3.6999150000  MEMB      186             0.0000000000
     21528       186  CHL1      H26A           24.5327772806      -18.2842562965       -2.7560750000  MEMB      186             0.0000000000
     21529       186  CHL1      H26B           23.2950149281      -17.2772669116       -3.6359250000  MEMB      186             0.0000000000
     21530       186  CHL1      H26C           24.3417499815      -18.4564168076       -4.5533750000  MEMB      186             0.0000000000
     21531       186  CHL1      C27            26.6302090651      -17.4271084982       -3.7646250000  MEMB      186             0.0000000000
     21532       186  CHL1      H27A           26.7303962937      -17.8741881105       -2.7525050000  MEMB      186             0.0000000000
     21533       186  CHL1      H27B           26.7324684874      -18.2159852792       -4.5402150000  MEMB      186             0.0000000000
     21534       186  CHL1      H27C           27.5331978448      -16.7799187469       -3.7721850000  MEMB      186             0.0000000000
     21535       187  CHL1      C3             33.0456835944      -35.4576517242      -17.3240650000  MEMB      187             0.0000000000
     21536       187  CHL1      H3             33.6236743067      -34.5093354171      -17.3546650000  MEMB      187             0.0000000000
     21537       187  CHL1      O3             32.6334598056      -35.7300396758      -18.6759350000  MEMB      187             0.0000000000
     21538       187  CHL1      H3'            33.4679684790      -35.5958910755      -19.1311450000  MEMB      187             0.0000000000
     21539       187  CHL1      C4             33.8617080623      -36.5989955553      -16.7220350000  MEMB      187             0.0000000000
     21540       187  CHL1      H4A            33.3229249149      -37.5680882375      -16.7919350000  MEMB      187             0.0000000000
     21541       187  CHL1      H4B            34.7159636421      -36.7227349257      -17.4215050000  MEMB      187             0.0000000000
     21542       187  CHL1      C5             34.3279174817      -36.3395202601      -15.3009950000  MEMB      187             0.0000000000
     21543       187  CHL1      C6             35.6430409641      -36.3205548528      -14.8680750000  MEMB      187             0.0000000000
     21544       187  CHL1      H6             36.4638363168      -36.4409424458      -15.5904250000  MEMB      187             0.0000000000
     21545       187  CHL1      C7             36.1062890216      -36.0110328669      -13.4830250000  MEMB      187             0.0000000000
     21546       187  CHL1      H7A            36.8894035178      -36.7342888678      -13.1700550000  MEMB      187             0.0000000000
     21547       187  CHL1      H7B            36.4691508187      -34.9824166322      -13.2718450000  MEMB      187             0.0000000000
     21548       187  CHL1      C8             34.9401337392      -36.2293070484      -12.5175250000  MEMB      187             0.0000000000
     21549       187  CHL1      H8             34.7387184769      -37.3170660266      -12.4148550000  MEMB      187             0.0000000000
     21550       187  CHL1      C14            35.1923333951      -35.6282252403      -11.0984550000  MEMB      187             0.0000000000
     21551       187  CHL1      H14            35.0995229066      -34.5388477800      -11.2958450000  MEMB      187             0.0000000000
     21552       187  CHL1      C15            36.5971248326      -35.6826047034      -10.4461950000  MEMB      187             0.0000000000
     21553       187  CHL1      H15A           37.0547556343      -36.6899244187      -10.3451750000  MEMB      187             0.0000000000
     21554       187  CHL1      H15B           37.3265580543      -34.9315179896      -10.8178450000  MEMB      187             0.0000000000
     21555       187  CHL1      C16            36.2938735744      -35.3659158574       -8.9906450000  MEMB      187             0.0000000000
     21556       187  CHL1      H16A           36.6710193646      -36.1498745346       -8.2996250000  MEMB      187             0.0000000000
     21557       187  CHL1      H16B           36.8756660329      -34.4558108932       -8.7307750000  MEMB      187             0.0000000000
     21558       187  CHL1      C17            34.7232974727      -35.1501267102       -8.8303450000  MEMB      187             0.0000000000
     21559       187  CHL1      H17            34.4828864150      -34.0693002789       -8.9216150000  MEMB      187             0.0000000000
     21560       187  CHL1      C13            34.1076460260      -35.8963527148      -10.0412450000  MEMB      187             0.0000000000
     21561       187  CHL1      C18            34.1464098764      -37.4986891374       -9.7566850000  MEMB      187             0.0000000000
     21562       187  CHL1      H18A           33.7857453431      -38.0804384015      -10.6317850000  MEMB      187             0.0000000000
     21563       187  CHL1      H18B           35.1895323972      -37.8048361202       -9.5275750000  MEMB      187             0.0000000000
     21564       187  CHL1      H18C           33.5089904037      -37.7861945903       -8.8933450000  MEMB      187             0.0000000000
     21565       187  CHL1      C12            32.7164789992      -35.3552189860      -10.4677150000  MEMB      187             0.0000000000
     21566       187  CHL1      H12A           31.9298779192      -35.6087390175       -9.7252050000  MEMB      187             0.0000000000
     21567       187  CHL1      H12B           32.8872821809      -34.2598473195      -10.3949350000  MEMB      187             0.0000000000
     21568       187  CHL1      C11            32.4310526600      -35.9265903967      -11.8795050000  MEMB      187             0.0000000000
     21569       187  CHL1      H11A           32.2302142583      -36.9922898864      -11.6381450000  MEMB      187             0.0000000000
     21570       187  CHL1      H11B           31.4367428363      -35.4775487373      -12.0893250000  MEMB      187             0.0000000000
     21571       187  CHL1      C9             33.5442636979      -35.6760332927      -12.9426450000  MEMB      187             0.0000000000
     21572       187  CHL1      H9             33.7365676310      -34.5846525774      -13.0216050000  MEMB      187             0.0000000000
     21573       187  CHL1      C10            33.1198889125      -36.1341989549      -14.4111550000  MEMB      187             0.0000000000
     21574       187  CHL1      C19            32.2703522039      -37.4412296938      -14.3302850000  MEMB      187             0.0000000000
     21575       187  CHL1      H19A           31.2856604901      -37.2772362311      -13.8426350000  MEMB      187             0.0000000000
     21576       187  CHL1      H19B           32.0268690124      -37.9172621783      -15.3041550000  MEMB      187             0.0000000000
     21577       187  CHL1      H19C           32.8285494978      -38.1921392142      -13.7312250000  MEMB      187             0.0000000000
     21578       187  CHL1      C1             32.1793857713      -35.0473266017      -14.9526850000  MEMB      187             0.0000000000
     21579       187  CHL1      H1A            31.3171878318      -34.8272743754      -14.2874750000  MEMB      187             0.0000000000
     21580       187  CHL1      H1B            32.8269385457      -34.1445672042      -14.9575150000  MEMB      187             0.0000000000
     21581       187  CHL1      C2             31.7752993975      -35.2694077636      -16.4660450000  MEMB      187             0.0000000000
     21582       187  CHL1      H2A            31.1032182690      -34.5371608649      -16.9624650000  MEMB      187             0.0000000000
     21583       187  CHL1      H2B            31.1707692196      -36.1979765604      -16.5475050000  MEMB      187             0.0000000000
     21584       187  CHL1      C20            34.2788355744      -35.4421126411       -7.3091550000  MEMB      187             0.0000000000
     21585       187  CHL1      H20            34.3641124681      -36.5235047242       -7.0690750000  MEMB      187             0.0000000000
     21586       187  CHL1      C21            32.7513379767      -35.2010604420       -7.2432550000  MEMB      187             0.0000000000
     21587       187  CHL1      H21A           32.1972804363      -36.0770117487       -7.6433250000  MEMB      187             0.0000000000
     21588       187  CHL1      H21B           32.5436852066      -34.2888472029       -7.8424750000  MEMB      187             0.0000000000
     21589       187  CHL1      H21C           32.4184640633      -35.0222135617       -6.1984950000  MEMB      187             0.0000000000
     21590       187  CHL1      C22            34.9626092606      -34.5984515824       -6.2291350000  MEMB      187             0.0000000000
     21591       187  CHL1      H22A           36.0420526371      -34.5457074497       -6.4867150000  MEMB      187             0.0000000000
     21592       187  CHL1      H22B           34.5873403393      -33.5545801508       -6.1672050000  MEMB      187             0.0000000000
     21593       187  CHL1      C23            34.8848711537      -35.2889282250       -4.8748450000  MEMB      187             0.0000000000
     21594       187  CHL1      H23A           33.8489760732      -35.2139433850       -4.4803550000  MEMB      187             0.0000000000
     21595       187  CHL1      H23B           35.1575890309      -36.3658972067       -4.8844250000  MEMB      187             0.0000000000
     21596       187  CHL1      C24            35.8044340058      -34.5725223389       -3.8066150000  MEMB      187             0.0000000000
     21597       187  CHL1      H24A           36.7614711422      -34.3322817301       -4.3171750000  MEMB      187             0.0000000000
     21598       187  CHL1      H24B           35.2624579262      -33.6926432361       -3.3987050000  MEMB      187             0.0000000000
     21599       187  CHL1      C25            36.0562835400      -35.5251545061       -2.5699150000  MEMB      187             0.0000000000
     21600       187  CHL1      H25            36.5856590054      -36.4174300206       -2.9673250000  MEMB      187             0.0000000000
     21601       187  CHL1      C26            36.8851970588      -34.8270511686       -1.5122350000  MEMB      187             0.0000000000
     21602       187  CHL1      H26A           37.8077643556      -34.4449120655       -1.9992350000  MEMB      187             0.0000000000
     21603       187  CHL1      H26B           36.3254080427      -33.9982264416       -1.0284850000  MEMB      187             0.0000000000
     21604       187  CHL1      H26C           37.2762688958      -35.6302174802       -0.8517050000  MEMB      187             0.0000000000
     21605       187  CHL1      C27            34.7276006053      -36.0120934794       -2.0151350000  MEMB      187             0.0000000000
     21606       187  CHL1      H27A           34.7672343646      -36.5004488496       -1.0180050000  MEMB      187             0.0000000000
     21607       187  CHL1      H27B           34.1038208095      -35.1054899602       -1.8625350000  MEMB      187             0.0000000000
     21608       187  CHL1      H27C           34.1915648139      -36.6899232038       -2.7133650000  MEMB      187             0.0000000000
     21609       188  CHL1      C3            -33.4858677708      -29.1390706307      -17.3805850000  MEMB      188             0.0000000000
     21610       188  CHL1      H3            -34.4549387280      -28.5998464902      -17.4473250000  MEMB      188             0.0000000000
     21611       188  CHL1      O3            -33.0192690292      -29.7544363693      -18.6194150000  MEMB      188             0.0000000000
     21612       188  CHL1      H3'           -33.6755286230      -30.4027047921      -18.8852450000  MEMB      188             0.0000000000
     21613       188  CHL1      C4            -32.4144802765      -28.1650598369      -16.9483250000  MEMB      188             0.0000000000
     21614       188  CHL1      H4A           -31.3928842710      -28.5985250691      -16.8955850000  MEMB      188             0.0000000000
     21615       188  CHL1      H4B           -32.3121986250      -27.3936420200      -17.7412750000  MEMB      188             0.0000000000
     21616       188  CHL1      C5            -32.7972199962      -27.5668866480      -15.6205250000  MEMB      188             0.0000000000
     21617       188  CHL1      C6            -32.8990433242      -26.2425942712      -15.4660550000  MEMB      188             0.0000000000
     21618       188  CHL1      H6            -32.6331836206      -25.5915985860      -16.3119350000  MEMB      188             0.0000000000
     21619       188  CHL1      C7            -33.2131465474      -25.5428817994      -14.1549550000  MEMB      188             0.0000000000
     21620       188  CHL1      H7A           -32.6882694323      -24.5868801904      -13.9431250000  MEMB      188             0.0000000000
     21621       188  CHL1      H7B           -34.2986419037      -25.3425678422      -14.0288250000  MEMB      188             0.0000000000
     21622       188  CHL1      C8            -32.9110392526      -26.4558713429      -12.9525050000  MEMB      188             0.0000000000
     21623       188  CHL1      H8            -31.8048253891      -26.5396900451      -12.8925650000  MEMB      188             0.0000000000
     21624       188  CHL1      C14           -33.4416249356      -25.8847080784      -11.6209150000  MEMB      188             0.0000000000
     21625       188  CHL1      H14           -34.5477158342      -25.7810422258      -11.6326750000  MEMB      188             0.0000000000
     21626       188  CHL1      C15           -33.0113033646      -24.4720835677      -11.2535150000  MEMB      188             0.0000000000
     21627       188  CHL1      H15A          -31.9127014286      -24.3068968511      -11.2431050000  MEMB      188             0.0000000000
     21628       188  CHL1      H15B          -33.5055386336      -23.7164869212      -11.9009250000  MEMB      188             0.0000000000
     21629       188  CHL1      C16           -33.5369774080      -24.3430354520       -9.8015250000  MEMB      188             0.0000000000
     21630       188  CHL1      H16A          -32.8803070172      -23.7073336097       -9.1698750000  MEMB      188             0.0000000000
     21631       188  CHL1      H16B          -34.6027959031      -24.0402579172       -9.7197950000  MEMB      188             0.0000000000
     21632       188  CHL1      C17           -33.7480106345      -25.8374624854       -9.2927750000  MEMB      188             0.0000000000
     21633       188  CHL1      H17           -34.8437949472      -26.0174136424       -9.3271850000  MEMB      188             0.0000000000
     21634       188  CHL1      C13           -33.2229749035      -26.7664500522      -10.4015550000  MEMB      188             0.0000000000
     21635       188  CHL1      C18           -31.6860781370      -26.9153640934      -10.1427450000  MEMB      188             0.0000000000
     21636       188  CHL1      H18A          -31.2031997972      -25.9353061052       -9.9411250000  MEMB      188             0.0000000000
     21637       188  CHL1      H18B          -31.3877901139      -27.6129918722       -9.3311750000  MEMB      188             0.0000000000
     21638       188  CHL1      H18C          -31.1370430104      -27.3050497256      -11.0265050000  MEMB      188             0.0000000000
     21639       188  CHL1      C12           -34.0067000414      -28.0499405521      -10.6175450000  MEMB      188             0.0000000000
     21640       188  CHL1      H12A          -34.0327576406      -28.7481974070       -9.7537850000  MEMB      188             0.0000000000
     21641       188  CHL1      H12B          -35.0821536482      -27.8783216704      -10.8372550000  MEMB      188             0.0000000000
     21642       188  CHL1      C11           -33.4443330068      -28.7853501452      -11.9133650000  MEMB      188             0.0000000000
     21643       188  CHL1      H11A          -32.3849021996      -29.0516620038      -11.7109150000  MEMB      188             0.0000000000
     21644       188  CHL1      H11B          -33.9700667915      -29.7576812097      -12.0250950000  MEMB      188             0.0000000000
     21645       188  CHL1      C9            -33.5488964652      -27.8188320439      -13.1729050000  MEMB      188             0.0000000000
     21646       188  CHL1      H9            -34.6237188864      -27.6379045370      -13.3881650000  MEMB      188             0.0000000000
     21647       188  CHL1      C10           -33.0266488538      -28.6050539198      -14.4576450000  MEMB      188             0.0000000000
     21648       188  CHL1      C19           -31.6265799246      -29.2406463594      -14.1807950000  MEMB      188             0.0000000000
     21649       188  CHL1      H19A          -31.2027506127      -29.5972057791      -15.1438950000  MEMB      188             0.0000000000
     21650       188  CHL1      H19B          -30.9807742514      -28.4333263348      -13.7739850000  MEMB      188             0.0000000000
     21651       188  CHL1      H19C          -31.6395041068      -29.9554095210      -13.3303450000  MEMB      188             0.0000000000
     21652       188  CHL1      C1            -34.1055361850      -29.5724521917      -14.9411150000  MEMB      188             0.0000000000
     21653       188  CHL1      H1A           -34.2639230019      -30.3670274808      -14.1809250000  MEMB      188             0.0000000000
     21654       188  CHL1      H1B           -35.1156885698      -29.1158180549      -15.0145550000  MEMB      188             0.0000000000
     21655       188  CHL1      C2            -33.7256177486      -30.2182937241      -16.3179050000  MEMB      188             0.0000000000
     21656       188  CHL1      H2A           -34.5503954562      -30.8707312484      -16.6762450000  MEMB      188             0.0000000000
     21657       188  CHL1      H2B           -32.7861707528      -30.7848062854      -16.1423450000  MEMB      188             0.0000000000
     21658       188  CHL1      C20           -33.3810710831      -26.0756119724       -7.8011850000  MEMB      188             0.0000000000
     21659       188  CHL1      H20           -32.2995428514      -25.8778255147       -7.6415550000  MEMB      188             0.0000000000
     21660       188  CHL1      C21           -33.5052492893      -27.5192484914       -7.2913450000  MEMB      188             0.0000000000
     21661       188  CHL1      H21A          -34.5126945971      -27.9292529306       -7.5177650000  MEMB      188             0.0000000000
     21662       188  CHL1      H21B          -33.4555680346      -27.4974094546       -6.1816750000  MEMB      188             0.0000000000
     21663       188  CHL1      H21C          -32.6726070197      -28.1101514642       -7.7293750000  MEMB      188             0.0000000000
     21664       188  CHL1      C22           -34.1114714745      -25.1622069425       -6.8602750000  MEMB      188             0.0000000000
     21665       188  CHL1      H22A          -34.3264097905      -24.1708850268       -7.3134750000  MEMB      188             0.0000000000
     21666       188  CHL1      H22B          -35.0955139109      -25.5738483639       -6.5495750000  MEMB      188             0.0000000000
     21667       188  CHL1      C23           -33.2746818303      -24.7648363895       -5.6400050000  MEMB      188             0.0000000000
     21668       188  CHL1      H23A          -32.8793622309      -25.6428116391       -5.0857550000  MEMB      188             0.0000000000
     21669       188  CHL1      H23B          -32.3720697239      -24.3329998436       -6.1228550000  MEMB      188             0.0000000000
     21670       188  CHL1      C24           -34.0710799492      -23.7906272351       -4.7790250000  MEMB      188             0.0000000000
     21671       188  CHL1      H24A          -34.4487367692      -22.9877088462       -5.4476250000  MEMB      188             0.0000000000
     21672       188  CHL1      H24B          -34.9425886403      -24.3868044627       -4.4335150000  MEMB      188             0.0000000000
     21673       188  CHL1      C25           -33.4565765696      -23.1800603279       -3.5417550000  MEMB      188             0.0000000000
     21674       188  CHL1      H25           -32.6539168313      -22.4347537370       -3.7276950000  MEMB      188             0.0000000000
     21675       188  CHL1      C26           -34.4638553929      -22.6560662717       -2.4985950000  MEMB      188             0.0000000000
     21676       188  CHL1      H26A          -35.0965494537      -23.5131773820       -2.1833350000  MEMB      188             0.0000000000
     21677       188  CHL1      H26B          -33.8651420024      -22.3160610004       -1.6266750000  MEMB      188             0.0000000000
     21678       188  CHL1      H26C          -35.0727499321      -21.8081813607       -2.8789350000  MEMB      188             0.0000000000
     21679       188  CHL1      C27           -32.7357381962      -24.2375886575       -2.6543250000  MEMB      188             0.0000000000
     21680       188  CHL1      H27A          -32.4959960240      -23.8464213482       -1.6424850000  MEMB      188             0.0000000000
     21681       188  CHL1      H27B          -33.3333855107      -25.1552093471       -2.4669150000  MEMB      188             0.0000000000
     21682       188  CHL1      H27C          -31.7773223255      -24.6109720333       -3.0742750000  MEMB      188             0.0000000000
     21683       189  CHL1      C3             11.2094381282       23.3009217633      -17.3134150000  MEMB      189             0.0000000000
     21684       189  CHL1      H3             11.3891212032       22.2710045485      -16.9375250000  MEMB      189             0.0000000000
     21685       189  CHL1      O3             11.1441500718       23.3067538367      -18.6865850000  MEMB      189             0.0000000000
     21686       189  CHL1      H3'            10.6525787636       24.1064350141      -18.8877450000  MEMB      189             0.0000000000
     21687       189  CHL1      C4              9.8895200909       23.8620291040      -16.7056950000  MEMB      189             0.0000000000
     21688       189  CHL1      H4A             9.5693093740       24.7969012155      -17.2134350000  MEMB      189             0.0000000000
     21689       189  CHL1      H4B             9.0700605556       23.2087581262      -17.0745450000  MEMB      189             0.0000000000
     21690       189  CHL1      C5              9.9895817867       24.0017701153      -15.2016250000  MEMB      189             0.0000000000
     21691       189  CHL1      C6              9.0153381143       23.4934319517      -14.3909150000  MEMB      189             0.0000000000
     21692       189  CHL1      H6              8.1803991247       22.9613055590      -14.8702050000  MEMB      189             0.0000000000
     21693       189  CHL1      C7              9.0300942492       23.4449703826      -12.8975450000  MEMB      189             0.0000000000
     21694       189  CHL1      H7A             8.0417466827       23.7861286297      -12.5219050000  MEMB      189             0.0000000000
     21695       189  CHL1      H7B             9.1736007657       22.4501084714      -12.4242950000  MEMB      189             0.0000000000
     21696       189  CHL1      C8             10.0658263171       24.3624274049      -12.2795850000  MEMB      189             0.0000000000
     21697       189  CHL1      H8              9.6030086918       25.3709751338      -12.3338550000  MEMB      189             0.0000000000
     21698       189  CHL1      C14            10.3471310707       24.1063674686      -10.7790450000  MEMB      189             0.0000000000
     21699       189  CHL1      H14            10.7967423791       23.0904190509      -10.7836650000  MEMB      189             0.0000000000
     21700       189  CHL1      C15             9.2049338436       24.0687946949       -9.8666250000  MEMB      189             0.0000000000
     21701       189  CHL1      H15A            8.5976189340       24.9798397324      -10.0550150000  MEMB      189             0.0000000000
     21702       189  CHL1      H15B            8.5048432200       23.2111070462       -9.9591650000  MEMB      189             0.0000000000
     21703       189  CHL1      C16             9.7829557162       24.1702019176       -8.4383550000  MEMB      189             0.0000000000
     21704       189  CHL1      H16A            9.3389993723       25.0583231458       -7.9398950000  MEMB      189             0.0000000000
     21705       189  CHL1      H16B            9.6127874042       23.3135889991       -7.7516450000  MEMB      189             0.0000000000
     21706       189  CHL1      C17            11.3105914316       24.3331149152       -8.6084650000  MEMB      189             0.0000000000
     21707       189  CHL1      H17            11.6779981549       23.2849361596       -8.5829650000  MEMB      189             0.0000000000
     21708       189  CHL1      C13            11.4541245872       24.8989487811      -10.0654850000  MEMB      189             0.0000000000
     21709       189  CHL1      C18            11.1807880870       26.3408143537      -10.1119850000  MEMB      189             0.0000000000
     21710       189  CHL1      H18A           10.2906782743       26.6147461014       -9.5061850000  MEMB      189             0.0000000000
     21711       189  CHL1      H18B           12.0748189193       26.7845823363       -9.6240350000  MEMB      189             0.0000000000
     21712       189  CHL1      H18C           10.9980115663       26.7177034667      -11.1410050000  MEMB      189             0.0000000000
     21713       189  CHL1      C12            12.7087221274       24.6043808976      -10.9001350000  MEMB      189             0.0000000000
     21714       189  CHL1      H12A           13.6273126453       25.0813856256      -10.4964250000  MEMB      189             0.0000000000
     21715       189  CHL1      H12B           12.8591958397       23.5060692383      -10.8267150000  MEMB      189             0.0000000000
     21716       189  CHL1      C11            12.6230203588       24.9146546797      -12.4026550000  MEMB      189             0.0000000000
     21717       189  CHL1      H11A           12.5367645115       26.0218330984      -12.4349150000  MEMB      189             0.0000000000
     21718       189  CHL1      H11B           13.5422224393       24.5286770229      -12.8929650000  MEMB      189             0.0000000000
     21719       189  CHL1      C9             11.3933275069       24.2119326379      -13.0833750000  MEMB      189             0.0000000000
     21720       189  CHL1      H9             11.7780131257       23.1918346509      -12.8695050000  MEMB      189             0.0000000000
     21721       189  CHL1      C10            11.2656193100       24.5663367177      -14.6264150000  MEMB      189             0.0000000000
     21722       189  CHL1      C19            11.1106973693       26.1465531968      -14.7115750000  MEMB      189             0.0000000000
     21723       189  CHL1      H19A           10.1548821636       26.5649861747      -14.3299150000  MEMB      189             0.0000000000
     21724       189  CHL1      H19B           11.9576509791       26.6981519956      -14.2503650000  MEMB      189             0.0000000000
     21725       189  CHL1      H19C           11.1730305746       26.4072981337      -15.7897450000  MEMB      189             0.0000000000
     21726       189  CHL1      C1             12.5462635119       24.1699483436      -15.3863750000  MEMB      189             0.0000000000
     21727       189  CHL1      H1A            13.2786193970       24.9561564611      -15.1037950000  MEMB      189             0.0000000000
     21728       189  CHL1      H1B            13.0064284680       23.2434130738      -14.9813050000  MEMB      189             0.0000000000
     21729       189  CHL1      C2             12.4262049972       24.2494520087      -16.9238250000  MEMB      189             0.0000000000
     21730       189  CHL1      H2A            13.3546873726       23.9544286269      -17.4578650000  MEMB      189             0.0000000000
     21731       189  CHL1      H2B            12.1368038266       25.3009681234      -17.1357050000  MEMB      189             0.0000000000
     21732       189  CHL1      C20            11.9974956496       25.1089639184       -7.4562350000  MEMB      189             0.0000000000
     21733       189  CHL1      H20            11.5918984032       26.1429398134       -7.4298250000  MEMB      189             0.0000000000
     21734       189  CHL1      C21            13.5032271261       25.1590555691       -7.6904550000  MEMB      189             0.0000000000
     21735       189  CHL1      H21A           13.6379572408       25.7765423630       -8.6041750000  MEMB      189             0.0000000000
     21736       189  CHL1      H21B           13.9125864704       24.1298816653       -7.7772650000  MEMB      189             0.0000000000
     21737       189  CHL1      H21C           14.1126624665       25.5436666585       -6.8448850000  MEMB      189             0.0000000000
     21738       189  CHL1      C22            11.6273238694       24.3598433147       -6.1431850000  MEMB      189             0.0000000000
     21739       189  CHL1      H22A           10.5374207075       24.5082376907       -5.9869550000  MEMB      189             0.0000000000
     21740       189  CHL1      H22B           11.7489702236       23.2851783767       -6.3974050000  MEMB      189             0.0000000000
     21741       189  CHL1      C23            12.4383883586       24.6089957799       -4.9443450000  MEMB      189             0.0000000000
     21742       189  CHL1      H23A           13.4908516746       24.3124108697       -5.1410150000  MEMB      189             0.0000000000
     21743       189  CHL1      H23B           12.4439131049       25.7170048779       -4.8631050000  MEMB      189             0.0000000000
     21744       189  CHL1      C24            12.0216209173       23.9286657952       -3.6477850000  MEMB      189             0.0000000000
     21745       189  CHL1      H24A           10.9348775014       24.0126926483       -3.4327250000  MEMB      189             0.0000000000
     21746       189  CHL1      H24B           12.0438465033       22.8291726502       -3.8057350000  MEMB      189             0.0000000000
     21747       189  CHL1      C25            12.9139172797       24.3895544353       -2.4782950000  MEMB      189             0.0000000000
     21748       189  CHL1      H25            12.7690847267       25.4831969702       -2.3468150000  MEMB      189             0.0000000000
     21749       189  CHL1      C26            12.3905644691       23.7948044924       -1.0835450000  MEMB      189             0.0000000000
     21750       189  CHL1      H26A           11.4067056461       24.2387242595       -0.8203650000  MEMB      189             0.0000000000
     21751       189  CHL1      H26B           12.2382574094       22.6945546641       -1.1073950000  MEMB      189             0.0000000000
     21752       189  CHL1      H26C           13.0893117850       24.0919491766       -0.2725150000  MEMB      189             0.0000000000
     21753       189  CHL1      C27            14.4183980790       24.1275894228       -2.5078550000  MEMB      189             0.0000000000
     21754       189  CHL1      H27A           14.8405784459       24.3377323758       -1.5019150000  MEMB      189             0.0000000000
     21755       189  CHL1      H27B           14.6293003747       23.0700297648       -2.7750750000  MEMB      189             0.0000000000
     21756       189  CHL1      H27C           14.8406876157       24.8138457691       -3.2727350000  MEMB      189             0.0000000000
     21757       190  CHL1      C3             34.1304464662        1.8504042072      -17.3271000000  MEMB      190             0.0000000000
     21758       190  CHL1      H3             35.2093903164        2.0924544302      -17.2193400000  MEMB      190             0.0000000000
     21759       190  CHL1      O3             33.7898815338        2.3037430528      -18.6729000000  MEMB      190             0.0000000000
     21760       190  CHL1      H3'            34.3225972749        1.7760116248      -19.2723300000  MEMB      190             0.0000000000
     21761       190  CHL1      C4             33.7758210628        0.4100722579      -17.0703900000  MEMB      190             0.0000000000
     21762       190  CHL1      H4A            32.6963353334        0.1743699217      -17.1865100000  MEMB      190             0.0000000000
     21763       190  CHL1      H4B            34.1838856294       -0.2836444494      -17.8362600000  MEMB      190             0.0000000000
     21764       190  CHL1      C5             34.1211482703       -0.0209695177      -15.6221700000  MEMB      190             0.0000000000
     21765       190  CHL1      C6             34.7231246023       -1.1887453653      -15.3595400000  MEMB      190             0.0000000000
     21766       190  CHL1      H6             34.8489915925       -1.8793878161      -16.2064100000  MEMB      190             0.0000000000
     21767       190  CHL1      C7             34.9968989285       -1.7556656206      -13.9971000000  MEMB      190             0.0000000000
     21768       190  CHL1      H7A            34.5457605122       -2.7578930486      -13.8348300000  MEMB      190             0.0000000000
     21769       190  CHL1      H7B            36.0903092195       -1.7612367373      -13.8002800000  MEMB      190             0.0000000000
     21770       190  CHL1      C8             34.4222781019       -0.8856616423      -12.8792600000  MEMB      190             0.0000000000
     21771       190  CHL1      H8             33.3761949131       -1.2549530902      -12.8186700000  MEMB      190             0.0000000000
     21772       190  CHL1      C14            35.1220995011       -1.1512886707      -11.5414000000  MEMB      190             0.0000000000
     21773       190  CHL1      H14            36.1997337418       -0.9316952044      -11.6988700000  MEMB      190             0.0000000000
     21774       190  CHL1      C15            35.2717428669       -2.6405748473      -11.1388100000  MEMB      190             0.0000000000
     21775       190  CHL1      H15A           34.3066895049       -3.1788666668      -11.2538000000  MEMB      190             0.0000000000
     21776       190  CHL1      H15B           36.0016079962       -3.2461116430      -11.7175400000  MEMB      190             0.0000000000
     21777       190  CHL1      C16            35.6422186394       -2.4979418730       -9.7055800000  MEMB      190             0.0000000000
     21778       190  CHL1      H16A           34.9973818846       -3.1781398481       -9.1090600000  MEMB      190             0.0000000000
     21779       190  CHL1      H16B           36.7284888928       -2.7111256292       -9.6112900000  MEMB      190             0.0000000000
     21780       190  CHL1      C17            35.4237733485       -1.0159740570       -9.2156800000  MEMB      190             0.0000000000
     21781       190  CHL1      H17            36.4357108624       -0.5648560914       -9.2981600000  MEMB      190             0.0000000000
     21782       190  CHL1      C13            34.6306381266       -0.3399521893      -10.3726100000  MEMB      190             0.0000000000
     21783       190  CHL1      C18            33.0574627085       -0.5080147756      -10.1224900000  MEMB      190             0.0000000000
     21784       190  CHL1      H18A           32.6963283345       -1.5425137447       -9.9388900000  MEMB      190             0.0000000000
     21785       190  CHL1      H18B           32.9347227786        0.1724921588       -9.2529200000  MEMB      190             0.0000000000
     21786       190  CHL1      H18C           32.5814721290       -0.2682534978      -11.0973200000  MEMB      190             0.0000000000
     21787       190  CHL1      C12            34.9755483916        1.0882301844      -10.7633600000  MEMB      190             0.0000000000
     21788       190  CHL1      H12A           34.7601038252        1.7574330097       -9.9030800000  MEMB      190             0.0000000000
     21789       190  CHL1      H12B           36.0543334471        1.3503731022      -10.8060000000  MEMB      190             0.0000000000
     21790       190  CHL1      C11            34.2579436336        1.5238502043      -12.0551700000  MEMB      190             0.0000000000
     21791       190  CHL1      H11A           33.1693440792        1.5591637287      -11.8359800000  MEMB      190             0.0000000000
     21792       190  CHL1      H11B           34.5427766547        2.5753270426      -12.2733100000  MEMB      190             0.0000000000
     21793       190  CHL1      C9             34.5457654946        0.5997719372      -13.2499200000  MEMB      190             0.0000000000
     21794       190  CHL1      H9             35.5935400069        0.8717626574      -13.4999400000  MEMB      190             0.0000000000
     21795       190  CHL1      C10            33.7181555569        1.0057807947      -14.4998900000  MEMB      190             0.0000000000
     21796       190  CHL1      C19            32.2968913743        1.0005227374      -14.2261300000  MEMB      190             0.0000000000
     21797       190  CHL1      H19A           31.9931736092       -0.0281977008      -13.9366400000  MEMB      190             0.0000000000
     21798       190  CHL1      H19B           31.8717886760        1.6478738090      -13.4295500000  MEMB      190             0.0000000000
     21799       190  CHL1      H19C           31.6246634091        1.3268668227      -15.0482800000  MEMB      190             0.0000000000
     21800       190  CHL1      C1             34.0836998065        2.4350894370      -14.8907700000  MEMB      190             0.0000000000
     21801       190  CHL1      H1A            33.6312820237        3.1336705062      -14.1548200000  MEMB      190             0.0000000000
     21802       190  CHL1      H1B            35.1866135320        2.5651826661      -14.8596200000  MEMB      190             0.0000000000
     21803       190  CHL1      C2             33.5908145124        2.8038596323      -16.3255800000  MEMB      190             0.0000000000
     21804       190  CHL1      H2A            33.8910613182        3.8556899438      -16.5200300000  MEMB      190             0.0000000000
     21805       190  CHL1      H2B            32.4844485259        2.7330456095      -16.3980800000  MEMB      190             0.0000000000
     21806       190  CHL1      C20            35.0093564147       -0.8707566244       -7.7071900000  MEMB      190             0.0000000000
     21807       190  CHL1      H20            33.9857591575       -1.3026556700       -7.7137100000  MEMB      190             0.0000000000
     21808       190  CHL1      C21            35.0217792035        0.5364854085       -7.2707700000  MEMB      190             0.0000000000
     21809       190  CHL1      H21A           36.0242956807        0.9466739010       -7.5177800000  MEMB      190             0.0000000000
     21810       190  CHL1      H21B           34.6870780976        0.7564974704       -6.2344800000  MEMB      190             0.0000000000
     21811       190  CHL1      H21C           34.2488711921        1.0749979250       -7.8597900000  MEMB      190             0.0000000000
     21812       190  CHL1      C22            35.9389151422       -1.8322378750       -6.8547400000  MEMB      190             0.0000000000
     21813       190  CHL1      H22A           36.0752996782       -2.8070019893       -7.3700500000  MEMB      190             0.0000000000
     21814       190  CHL1      H22B           36.9903198945       -1.4923979849       -6.9704000000  MEMB      190             0.0000000000
     21815       190  CHL1      C23            35.6402280512       -1.8582755150       -5.2940100000  MEMB      190             0.0000000000
     21816       190  CHL1      H23A           36.5097047182       -2.2185008363       -4.7036100000  MEMB      190             0.0000000000
     21817       190  CHL1      H23B           35.5398058907       -0.7872011518       -5.0164600000  MEMB      190             0.0000000000
     21818       190  CHL1      C24            34.4368879349       -2.6700723545       -4.9302700000  MEMB      190             0.0000000000
     21819       190  CHL1      H24A           33.5195494102       -2.0756044573       -5.1288300000  MEMB      190             0.0000000000
     21820       190  CHL1      H24B           34.4646261612       -3.6212063317       -5.5037600000  MEMB      190             0.0000000000
     21821       190  CHL1      C25            34.4196141009       -3.1767157340       -3.4710700000  MEMB      190             0.0000000000
     21822       190  CHL1      H25            35.2392925199       -3.9129017803       -3.3279900000  MEMB      190             0.0000000000
     21823       190  CHL1      C26            34.3048672253       -2.1834340565       -2.3399100000  MEMB      190             0.0000000000
     21824       190  CHL1      H26A           34.2419712706       -2.6991359896       -1.3578600000  MEMB      190             0.0000000000
     21825       190  CHL1      H26B           35.2009118620       -1.5331407261       -2.2475400000  MEMB      190             0.0000000000
     21826       190  CHL1      H26C           33.4519894001       -1.5015033355       -2.5445900000  MEMB      190             0.0000000000
     21827       190  CHL1      C27            33.0486968194       -3.8646770580       -3.3123500000  MEMB      190             0.0000000000
     21828       190  CHL1      H27A           32.7793175535       -4.0668601829       -2.2536300000  MEMB      190             0.0000000000
     21829       190  CHL1      H27B           32.2771598384       -3.1510170688       -3.6725300000  MEMB      190             0.0000000000
     21830       190  CHL1      H27C           32.9215496438       -4.8097773992       -3.8823900000  MEMB      190             0.0000000000
     21831       191  CHL1      C3            -26.9882131377      -44.4503854183      -17.3278900000  MEMB      191             0.0000000000
     21832       191  CHL1      H3            -26.2671074351      -43.6057090517      -17.3572000000  MEMB      191             0.0000000000
     21833       191  CHL1      O3            -27.2151964623      -44.8622433817      -18.6721100000  MEMB      191             0.0000000000
     21834       191  CHL1      H3'           -26.5085931334      -45.4861925185      -18.8537800000  MEMB      191             0.0000000000
     21835       191  CHL1      C4            -26.4984368986      -45.6742790597      -16.4660600000  MEMB      191             0.0000000000
     21836       191  CHL1      H4A           -27.1529860744      -46.5370155271      -16.7142100000  MEMB      191             0.0000000000
     21837       191  CHL1      H4B           -25.5565839838      -45.9740826377      -16.9733600000  MEMB      191             0.0000000000
     21838       191  CHL1      C5            -26.3403799948      -45.4074062549      -15.0284300000  MEMB      191             0.0000000000
     21839       191  CHL1      C6            -25.1866353102      -45.6360767494      -14.3742200000  MEMB      191             0.0000000000
     21840       191  CHL1      H6            -24.3653013329      -46.2257575576      -14.8074700000  MEMB      191             0.0000000000
     21841       191  CHL1      C7            -25.1697346162      -45.6418306214      -12.8186400000  MEMB      191             0.0000000000
     21842       191  CHL1      H7A           -24.6837195966      -46.5642456796      -12.4348900000  MEMB      191             0.0000000000
     21843       191  CHL1      H7B           -24.5793410641      -44.7576267427      -12.4962300000  MEMB      191             0.0000000000
     21844       191  CHL1      C8            -26.5266600787      -45.4941807590      -12.1250200000  MEMB      191             0.0000000000
     21845       191  CHL1      H8            -27.0369946774      -46.4774847618      -12.2085900000  MEMB      191             0.0000000000
     21846       191  CHL1      C14           -26.3332816990      -45.1253299377      -10.6339800000  MEMB      191             0.0000000000
     21847       191  CHL1      H14           -25.6933924584      -44.2181520887      -10.5905000000  MEMB      191             0.0000000000
     21848       191  CHL1      C15           -25.4349770278      -46.0142915701       -9.8335500000  MEMB      191             0.0000000000
     21849       191  CHL1      H15A          -25.9285778562      -47.0033157327       -9.7216800000  MEMB      191             0.0000000000
     21850       191  CHL1      H15B          -24.3806993468      -46.1185642314      -10.1681200000  MEMB      191             0.0000000000
     21851       191  CHL1      C16           -25.5927603528      -45.3027380105       -8.4408300000  MEMB      191             0.0000000000
     21852       191  CHL1      H16A          -25.7088398437      -46.0770725014       -7.6526300000  MEMB      191             0.0000000000
     21853       191  CHL1      H16B          -24.7403191890      -44.6426160379       -8.1726700000  MEMB      191             0.0000000000
     21854       191  CHL1      C17           -26.8323102531      -44.3503151455       -8.5301900000  MEMB      191             0.0000000000
     21855       191  CHL1      H17           -26.4684692470      -43.3149597901       -8.7033400000  MEMB      191             0.0000000000
     21856       191  CHL1      C13           -27.5695794414      -44.7124510473       -9.7975700000  MEMB      191             0.0000000000
     21857       191  CHL1      C18           -28.5385123814      -45.9114285688       -9.6156700000  MEMB      191             0.0000000000
     21858       191  CHL1      H18A          -29.5356930674      -45.6037883946       -9.2345000000  MEMB      191             0.0000000000
     21859       191  CHL1      H18B          -28.5737516645      -46.4215715184      -10.6020000000  MEMB      191             0.0000000000
     21860       191  CHL1      H18C          -28.1359828133      -46.6771458189       -8.9185600000  MEMB      191             0.0000000000
     21861       191  CHL1      C12           -28.2530156111      -43.5667436121      -10.7081700000  MEMB      191             0.0000000000
     21862       191  CHL1      H12A          -29.1813595019      -43.2765367403      -10.1712600000  MEMB      191             0.0000000000
     21863       191  CHL1      H12B          -27.6004506503      -42.6781947893      -10.8458600000  MEMB      191             0.0000000000
     21864       191  CHL1      C11           -28.6729152008      -44.1246407918      -12.0743500000  MEMB      191             0.0000000000
     21865       191  CHL1      H11A          -29.2224440790      -45.0888670887      -12.0233600000  MEMB      191             0.0000000000
     21866       191  CHL1      H11B          -29.2636850235      -43.4260700192      -12.7046800000  MEMB      191             0.0000000000
     21867       191  CHL1      C9            -27.3682839962      -44.4633394204      -12.9337700000  MEMB      191             0.0000000000
     21868       191  CHL1      H9            -26.8677160153      -43.4717558660      -12.9566400000  MEMB      191             0.0000000000
     21869       191  CHL1      C10           -27.6331835819      -44.8578658935      -14.4473200000  MEMB      191             0.0000000000
     21870       191  CHL1      C19           -28.5525609255      -46.0744276314      -14.5158900000  MEMB      191             0.0000000000
     21871       191  CHL1      H19A          -28.8736298897      -46.3796061454      -15.5347600000  MEMB      191             0.0000000000
     21872       191  CHL1      H19B          -28.1130148414      -46.9530827761      -13.9971500000  MEMB      191             0.0000000000
     21873       191  CHL1      H19C          -29.5337662150      -45.8526211034      -14.0443400000  MEMB      191             0.0000000000
     21874       191  CHL1      C1            -28.1996320130      -43.6933486435      -15.2812300000  MEMB      191             0.0000000000
     21875       191  CHL1      H1A           -29.2835821559      -43.5678709565      -15.0724000000  MEMB      191             0.0000000000
     21876       191  CHL1      H1B           -27.6678388869      -42.7527612488      -15.0227600000  MEMB      191             0.0000000000
     21877       191  CHL1      C2            -28.2830270293      -43.8889966952      -16.7868300000  MEMB      191             0.0000000000
     21878       191  CHL1      H2A           -28.3916807683      -42.8671153434      -17.2090700000  MEMB      191             0.0000000000
     21879       191  CHL1      H2B           -29.1751939914      -44.5405097102      -16.9047300000  MEMB      191             0.0000000000
     21880       191  CHL1      C20           -27.4962402425      -44.3215094773       -7.1357000000  MEMB      191             0.0000000000
     21881       191  CHL1      H20           -27.8853989867      -45.3482841836       -6.9665200000  MEMB      191             0.0000000000
     21882       191  CHL1      C21           -28.7571003237      -43.4736121986       -7.2006800000  MEMB      191             0.0000000000
     21883       191  CHL1      H21A          -28.3922499963      -42.4389752933       -7.3759700000  MEMB      191             0.0000000000
     21884       191  CHL1      H21B          -29.4826799991      -43.4552446105       -6.3595400000  MEMB      191             0.0000000000
     21885       191  CHL1      H21C          -29.4106058408      -43.7211708257       -8.0643700000  MEMB      191             0.0000000000
     21886       191  CHL1      C22           -26.6335568992      -43.8677865966       -5.9268100000  MEMB      191             0.0000000000
     21887       191  CHL1      H22A          -25.5672753694      -44.1616494023       -6.0317600000  MEMB      191             0.0000000000
     21888       191  CHL1      H22B          -26.6142233475      -42.7579040117       -5.9727400000  MEMB      191             0.0000000000
     21889       191  CHL1      C23           -27.2128234561      -44.3150619974       -4.6799000000  MEMB      191             0.0000000000
     21890       191  CHL1      H23A          -28.2815051019      -44.0344536794       -4.5637700000  MEMB      191             0.0000000000
     21891       191  CHL1      H23B          -27.2544975533      -45.4248041242       -4.7127200000  MEMB      191             0.0000000000
     21892       191  CHL1      C24           -26.2841747093      -43.8134665020       -3.4869400000  MEMB      191             0.0000000000
     21893       191  CHL1      H24A          -25.2261918286      -44.0001403800       -3.7700500000  MEMB      191             0.0000000000
     21894       191  CHL1      H24B          -26.4856748270      -42.7212677075       -3.4583600000  MEMB      191             0.0000000000
     21895       191  CHL1      C25           -26.4072943518      -44.4279492179       -2.0891500000  MEMB      191             0.0000000000
     21896       191  CHL1      H25           -26.4034927708      -45.5244300628       -2.2681000000  MEMB      191             0.0000000000
     21897       191  CHL1      C26           -25.3031075480      -43.9758479097       -1.0983200000  MEMB      191             0.0000000000
     21898       191  CHL1      H26A          -25.4327207591      -42.8997969527       -0.8540900000  MEMB      191             0.0000000000
     21899       191  CHL1      H26B          -25.4506797805      -44.5598553284       -0.1647900000  MEMB      191             0.0000000000
     21900       191  CHL1      H26C          -24.3950881118      -44.0635317481       -1.7324600000  MEMB      191             0.0000000000
     21901       191  CHL1      C27           -27.7176581838      -44.0670185137       -1.4058600000  MEMB      191             0.0000000000
     21902       191  CHL1      H27A          -28.5035549852      -43.7739347850       -2.1344200000  MEMB      191             0.0000000000
     21903       191  CHL1      H27B          -28.1718763635      -44.8929409610       -0.8177700000  MEMB      191             0.0000000000
     21904       191  CHL1      H27C          -27.5961262672      -43.1756742987       -0.7539100000  MEMB      191             0.0000000000
     21905       192  CHL1      C3            -44.1146201268       46.1809256113      -17.3109900000  MEMB      192             0.0000000000
     21906       192  CHL1      H3            -45.1097015427       46.6493225335      -17.1537200000  MEMB      192             0.0000000000
     21907       192  CHL1      O3            -43.9438602732       45.8008345887      -18.6890100000  MEMB      192             0.0000000000
     21908       192  CHL1      H3'           -44.7176738579       45.3031760948      -18.9631400000  MEMB      192             0.0000000000
     21909       192  CHL1      C4            -43.0589098231       47.1311639207      -16.8011300000  MEMB      192             0.0000000000
     21910       192  CHL1      H4A           -42.1284525548       46.5565301068      -16.9970200000  MEMB      192             0.0000000000
     21911       192  CHL1      H4B           -43.1537451097       48.0002686537      -17.4866800000  MEMB      192             0.0000000000
     21912       192  CHL1      C5            -43.1115558164       47.5500013109      -15.3464700000  MEMB      192             0.0000000000
     21913       192  CHL1      C6            -43.2730313638       48.8459070876      -15.0344300000  MEMB      192             0.0000000000
     21914       192  CHL1      H6            -43.3329746608       49.6416567256      -15.7915300000  MEMB      192             0.0000000000
     21915       192  CHL1      C7            -43.5768200156       49.3351114220      -13.6331500000  MEMB      192             0.0000000000
     21916       192  CHL1      H7A           -42.8940383682       50.1836891001      -13.4139800000  MEMB      192             0.0000000000
     21917       192  CHL1      H7B           -44.5905720119       49.7251950942      -13.3998100000  MEMB      192             0.0000000000
     21918       192  CHL1      C8            -43.2257510022       48.2125442584      -12.5114200000  MEMB      192             0.0000000000
     21919       192  CHL1      H8            -42.1316393299       48.0212489535      -12.5369100000  MEMB      192             0.0000000000
     21920       192  CHL1      C14           -43.6967675274       48.5124314703      -11.1298700000  MEMB      192             0.0000000000
     21921       192  CHL1      H14           -44.7858716612       48.6978871983      -11.2472100000  MEMB      192             0.0000000000
     21922       192  CHL1      C15           -42.9626024990       49.7596940153      -10.5795000000  MEMB      192             0.0000000000
     21923       192  CHL1      H15A          -41.8557460271       49.7328806555      -10.6714500000  MEMB      192             0.0000000000
     21924       192  CHL1      H15B          -43.2958998014       50.7150298565      -11.0383700000  MEMB      192             0.0000000000
     21925       192  CHL1      C16           -43.3360061519       49.7481756735       -9.0870300000  MEMB      192             0.0000000000
     21926       192  CHL1      H16A          -42.4286107966       49.9680144270       -8.4848400000  MEMB      192             0.0000000000
     21927       192  CHL1      H16B          -44.1410896814       50.5039604896       -8.9648100000  MEMB      192             0.0000000000
     21928       192  CHL1      C17           -43.9706859218       48.3024477678       -8.7770100000  MEMB      192             0.0000000000
     21929       192  CHL1      H17           -45.0468449631       48.5663864154       -8.8577500000  MEMB      192             0.0000000000
     21930       192  CHL1      C13           -43.5697594586       47.4456300945      -10.0067400000  MEMB      192             0.0000000000
     21931       192  CHL1      C18           -42.1273835970       46.9026232345       -9.8284300000  MEMB      192             0.0000000000
     21932       192  CHL1      H18A          -41.6774785879       46.7678938210      -10.8352900000  MEMB      192             0.0000000000
     21933       192  CHL1      H18B          -41.4998768226       47.6299015688       -9.2702000000  MEMB      192             0.0000000000
     21934       192  CHL1      H18C          -42.2115531771       45.9396124608       -9.2808500000  MEMB      192             0.0000000000
     21935       192  CHL1      C12           -44.4390261017       46.3659457290      -10.5680800000  MEMB      192             0.0000000000
     21936       192  CHL1      H12A          -44.4020476039       45.4133225496       -9.9976000000  MEMB      192             0.0000000000
     21937       192  CHL1      H12B          -45.4662385053       46.7619762520      -10.7174800000  MEMB      192             0.0000000000
     21938       192  CHL1      C11           -43.8634199404       45.7872113858      -11.9293700000  MEMB      192             0.0000000000
     21939       192  CHL1      H11A          -42.8280434174       45.4110946583      -11.7850000000  MEMB      192             0.0000000000
     21940       192  CHL1      H11B          -44.4807865486       44.9027605821      -12.1956800000  MEMB      192             0.0000000000
     21941       192  CHL1      C9            -43.8563413148       46.9216969414      -13.0507600000  MEMB      192             0.0000000000
     21942       192  CHL1      H9            -44.8766460667       47.2671743899      -13.3226600000  MEMB      192             0.0000000000
     21943       192  CHL1      C10           -43.2783363604       46.3516150655      -14.3702700000  MEMB      192             0.0000000000
     21944       192  CHL1      C19           -41.8518554944       45.6437702196      -14.2394400000  MEMB      192             0.0000000000
     21945       192  CHL1      H19A          -41.9460067906       44.6981202709      -13.6639300000  MEMB      192             0.0000000000
     21946       192  CHL1      H19B          -41.3782405341       45.2999229333      -15.1837800000  MEMB      192             0.0000000000
     21947       192  CHL1      H19C          -41.1986263006       46.3837379327      -13.7294700000  MEMB      192             0.0000000000
     21948       192  CHL1      C1            -44.3601019272       45.3250467006      -14.9201400000  MEMB      192             0.0000000000
     21949       192  CHL1      H1A           -44.3818170711       44.3623077599      -14.3660800000  MEMB      192             0.0000000000
     21950       192  CHL1      H1B           -45.3719939449       45.7835874235      -14.9321500000  MEMB      192             0.0000000000
     21951       192  CHL1      C2            -44.0835294003       44.9240573368      -16.4067100000  MEMB      192             0.0000000000
     21952       192  CHL1      H2A           -44.9621231532       44.3136032541      -16.7062800000  MEMB      192             0.0000000000
     21953       192  CHL1      H2B           -43.1722969695       44.3213455793      -16.6084800000  MEMB      192             0.0000000000
     21954       192  CHL1      C20           -43.6977614965       47.7405718845       -7.3596100000  MEMB      192             0.0000000000
     21955       192  CHL1      H20           -42.5988503921       47.6404401428       -7.2304900000  MEMB      192             0.0000000000
     21956       192  CHL1      C21           -44.2805027194       46.3388549359       -7.1394100000  MEMB      192             0.0000000000
     21957       192  CHL1      H21A          -45.2462284402       46.1818606241       -7.6657600000  MEMB      192             0.0000000000
     21958       192  CHL1      H21B          -44.5541263401       46.1124989669       -6.0866900000  MEMB      192             0.0000000000
     21959       192  CHL1      H21C          -43.5575958153       45.5695044778       -7.4855700000  MEMB      192             0.0000000000
     21960       192  CHL1      C22           -44.2194823879       48.6625641864       -6.2656100000  MEMB      192             0.0000000000
     21961       192  CHL1      H22A          -44.2240548298       49.6665665108       -6.7413000000  MEMB      192             0.0000000000
     21962       192  CHL1      H22B          -45.2550053758       48.3180112366       -6.0575300000  MEMB      192             0.0000000000
     21963       192  CHL1      C23           -43.4335431631       48.5965203051       -4.9834900000  MEMB      192             0.0000000000
     21964       192  CHL1      H23A          -43.6981050841       47.7147286891       -4.3615900000  MEMB      192             0.0000000000
     21965       192  CHL1      H23B          -42.3536496791       48.6023700482       -5.2444900000  MEMB      192             0.0000000000
     21966       192  CHL1      C24           -43.7167768902       49.8440179579       -4.2005900000  MEMB      192             0.0000000000
     21967       192  CHL1      H24A          -43.7219819310       50.7313350891       -4.8691300000  MEMB      192             0.0000000000
     21968       192  CHL1      H24B          -44.7387168317       49.7896074353       -3.7681500000  MEMB      192             0.0000000000
     21969       192  CHL1      C25           -42.6707095610       50.2775667715       -3.0921900000  MEMB      192             0.0000000000
     21970       192  CHL1      H25           -41.8052094699       50.7142879580       -3.6348700000  MEMB      192             0.0000000000
     21971       192  CHL1      C26           -43.2164444059       51.4685452723       -2.1451300000  MEMB      192             0.0000000000
     21972       192  CHL1      H26A          -44.0603965526       51.0456527006       -1.5592800000  MEMB      192             0.0000000000
     21973       192  CHL1      H26B          -42.5401334468       51.7961585978       -1.3268300000  MEMB      192             0.0000000000
     21974       192  CHL1      H26C          -43.5947314630       52.4089986783       -2.5998300000  MEMB      192             0.0000000000
     21975       192  CHL1      C27           -42.2386132322       49.1031442411       -2.1699600000  MEMB      192             0.0000000000
     21976       192  CHL1      H27A          -41.9258282799       48.2197811169       -2.7667500000  MEMB      192             0.0000000000
     21977       192  CHL1      H27B          -41.3857382185       49.4088724861       -1.5269500000  MEMB      192             0.0000000000
     21978       192  CHL1      H27C          -43.1310890734       48.7061300226       -1.6406300000  MEMB      192             0.0000000000
     21979       193  CHL1      C3             -3.5424753917       37.8997738626      -17.3143400000  MEMB      193             0.0000000000
     21980       193  CHL1      H3             -3.6987105035       36.9279371251      -16.7991300000  MEMB      193             0.0000000000
     21981       193  CHL1      O3             -4.0285029083       37.9648861374      -18.6856600000  MEMB      193             0.0000000000
     21982       193  CHL1      H3'            -4.0058759787       38.8541540179      -19.0466300000  MEMB      193             0.0000000000
     21983       193  CHL1      C4             -4.3594677770       38.9045916825      -16.5121900000  MEMB      193             0.0000000000
     21984       193  CHL1      H4A            -4.3059377088       39.9100803293      -16.9817300000  MEMB      193             0.0000000000
     21985       193  CHL1      H4B            -5.4269731281       38.6485443857      -16.6830400000  MEMB      193             0.0000000000
     21986       193  CHL1      C5             -3.9265144412       39.0855240421      -15.0196300000  MEMB      193             0.0000000000
     21987       193  CHL1      C6             -4.7637522416       38.9605775430      -13.9526700000  MEMB      193             0.0000000000
     21988       193  CHL1      H6             -5.8470865183       38.8831252627      -14.1269900000  MEMB      193             0.0000000000
     21989       193  CHL1      C7             -4.3884511591       39.2225301408      -12.5183900000  MEMB      193             0.0000000000
     21990       193  CHL1      H7A            -4.9129294797       40.1022240794      -12.0878400000  MEMB      193             0.0000000000
     21991       193  CHL1      H7B            -4.6031535462       38.3464712238      -11.8697500000  MEMB      193             0.0000000000
     21992       193  CHL1      C8             -2.9023692175       39.6115325714      -12.3820800000  MEMB      193             0.0000000000
     21993       193  CHL1      H8             -2.7759659355       40.7001316587      -12.5645800000  MEMB      193             0.0000000000
     21994       193  CHL1      C14            -2.4274779858       39.2603193760      -11.0071300000  MEMB      193             0.0000000000
     21995       193  CHL1      H14            -2.5371767041       38.1570635376      -10.9357300000  MEMB      193             0.0000000000
     21996       193  CHL1      C15            -3.2703426930       39.7335120905       -9.8055700000  MEMB      193             0.0000000000
     21997       193  CHL1      H15A           -3.7168570531       40.7505185433       -9.7800900000  MEMB      193             0.0000000000
     21998       193  CHL1      H15B           -4.0332261876       38.9269258681       -9.7638000000  MEMB      193             0.0000000000
     21999       193  CHL1      C16            -2.3410810421       39.5278658615       -8.5936300000  MEMB      193             0.0000000000
     22000       193  CHL1      H16A           -2.3153783017       40.4080143184       -7.9161400000  MEMB      193             0.0000000000
     22001       193  CHL1      H16B           -2.5375839315       38.6083891144       -8.0018000000  MEMB      193             0.0000000000
     22002       193  CHL1      C17            -0.9431405950       39.1277092264       -9.1810900000  MEMB      193             0.0000000000
     22003       193  CHL1      H17            -0.9226751331       38.0169095219       -9.1776300000  MEMB      193             0.0000000000
     22004       193  CHL1      C13            -1.0052709865       39.5495170525      -10.6705800000  MEMB      193             0.0000000000
     22005       193  CHL1      C18            -0.7639736089       41.0850217392      -10.7684100000  MEMB      193             0.0000000000
     22006       193  CHL1      H18A           -1.3343860128       41.5333073681       -9.9269900000  MEMB      193             0.0000000000
     22007       193  CHL1      H18B            0.2949065356       41.3634259747      -10.5797800000  MEMB      193             0.0000000000
     22008       193  CHL1      H18C           -1.0304539335       41.5512479722      -11.7410000000  MEMB      193             0.0000000000
     22009       193  CHL1      C12            -0.1655427647       38.6452531014      -11.6861600000  MEMB      193             0.0000000000
     22010       193  CHL1      H12A            0.9345778087       38.6407024992      -11.5311400000  MEMB      193             0.0000000000
     22011       193  CHL1      H12B           -0.5358083221       37.5985018760      -11.7252800000  MEMB      193             0.0000000000
     22012       193  CHL1      C11            -0.4788667070       39.0089458478      -13.0993400000  MEMB      193             0.0000000000
     22013       193  CHL1      H11A           -0.0226465091       39.9702173085      -13.4189200000  MEMB      193             0.0000000000
     22014       193  CHL1      H11B            0.1016597873       38.2700118545      -13.6920400000  MEMB      193             0.0000000000
     22015       193  CHL1      C9             -1.9668025995       38.8939101600      -13.4586900000  MEMB      193             0.0000000000
     22016       193  CHL1      H9             -2.0755548734       37.7972726327      -13.3177000000  MEMB      193             0.0000000000
     22017       193  CHL1      C10            -2.3547237896       39.2108404095      -14.9174900000  MEMB      193             0.0000000000
     22018       193  CHL1      C19            -1.9957401728       40.7056573938      -15.1521300000  MEMB      193             0.0000000000
     22019       193  CHL1      H19A           -2.3805062005       40.9186518408      -16.1723800000  MEMB      193             0.0000000000
     22020       193  CHL1      H19B           -2.5097045107       41.3044627728      -14.3700900000  MEMB      193             0.0000000000
     22021       193  CHL1      H19C           -0.9417388377       41.0242906416      -15.3000600000  MEMB      193             0.0000000000
     22022       193  CHL1      C1             -1.5452919196       38.2751313084      -15.8370300000  MEMB      193             0.0000000000
     22023       193  CHL1      H1A            -0.4813094063       38.5771502074      -15.7319100000  MEMB      193             0.0000000000
     22024       193  CHL1      H1B            -1.6890948183       37.2511692192      -15.4306600000  MEMB      193             0.0000000000
     22025       193  CHL1      C2             -2.0688551496       38.2888724363      -17.2394500000  MEMB      193             0.0000000000
     22026       193  CHL1      H2A            -1.5672980633       37.5515023844      -17.9020600000  MEMB      193             0.0000000000
     22027       193  CHL1      H2B            -1.8697251972       39.2129992415      -17.8231000000  MEMB      193             0.0000000000
     22028       193  CHL1      C20             0.2416781501       39.5924024391       -8.2604400000  MEMB      193             0.0000000000
     22029       193  CHL1      H20             0.3317339055       40.6959734139       -8.3518800000  MEMB      193             0.0000000000
     22030       193  CHL1      C21             1.5575412274       38.9274975645       -8.7763600000  MEMB      193             0.0000000000
     22031       193  CHL1      H21A            2.4070095924       39.3270515272       -8.1821600000  MEMB      193             0.0000000000
     22032       193  CHL1      H21B            1.7253547650       39.2654571223       -9.8213200000  MEMB      193             0.0000000000
     22033       193  CHL1      H21C            1.5381271329       37.8182595849       -8.7168000000  MEMB      193             0.0000000000
     22034       193  CHL1      C22            -0.0561649001       39.2523904842       -6.8427800000  MEMB      193             0.0000000000
     22035       193  CHL1      H22A           -0.8836218079       39.8351694744       -6.3845200000  MEMB      193             0.0000000000
     22036       193  CHL1      H22B           -0.3654240644       38.1854042544       -6.8575700000  MEMB      193             0.0000000000
     22037       193  CHL1      C23             1.1077404510       39.4354345448       -5.8519000000  MEMB      193             0.0000000000
     22038       193  CHL1      H23A            1.8962177497       38.6551169635       -5.9129900000  MEMB      193             0.0000000000
     22039       193  CHL1      H23B            1.5518899485       40.4437687285       -5.9944600000  MEMB      193             0.0000000000
     22040       193  CHL1      C24             0.6637388437       39.3293526508       -4.3802000000  MEMB      193             0.0000000000
     22041       193  CHL1      H24A           -0.0988920240       40.1151522486       -4.1924600000  MEMB      193             0.0000000000
     22042       193  CHL1      H24B            0.1350945712       38.3746104020       -4.1720200000  MEMB      193             0.0000000000
     22043       193  CHL1      C25             1.8037027248       39.4881640142       -3.3108500000  MEMB      193             0.0000000000
     22044       193  CHL1      H25             2.3514277727       40.4377087147       -3.4916500000  MEMB      193             0.0000000000
     22045       193  CHL1      C26             1.2038790197       39.4929941523       -1.8929900000  MEMB      193             0.0000000000
     22046       193  CHL1      H26A            0.5319970521       40.3315955459       -1.6108200000  MEMB      193             0.0000000000
     22047       193  CHL1      H26B            0.7186987254       38.5235700408       -1.6497700000  MEMB      193             0.0000000000
     22048       193  CHL1      H26C            2.0762822413       39.5774688594       -1.2102700000  MEMB      193             0.0000000000
     22049       193  CHL1      C27             2.7032778327       38.2435337401       -3.2685600000  MEMB      193             0.0000000000
     22050       193  CHL1      H27A            3.4555418572       38.5736798452       -2.5206200000  MEMB      193             0.0000000000
     22051       193  CHL1      H27B            2.1339029884       37.3635035447       -2.9001900000  MEMB      193             0.0000000000
     22052       193  CHL1      H27C            3.2564221344       37.9669410648       -4.1915100000  MEMB      193             0.0000000000
     22053       194  CHL1      C3             32.0909283548       31.5551306110      -17.3649300000  MEMB      194             0.0000000000
     22054       194  CHL1      H3             31.6737291780       32.5704308510      -17.5365300000  MEMB      194             0.0000000000
     22055       194  CHL1      O3             32.3018864452       30.9772463890      -18.6350700000  MEMB      194             0.0000000000
     22056       194  CHL1      H3'            31.4168398971       30.8361274632      -18.9791200000  MEMB      194             0.0000000000
     22057       194  CHL1      C4             33.4276348208       31.5144617786      -16.6257700000  MEMB      194             0.0000000000
     22058       194  CHL1      H4A            33.9505665814       30.5352688956      -16.6710000000  MEMB      194             0.0000000000
     22059       194  CHL1      H4B            34.2037096573       32.1381279087      -17.1187700000  MEMB      194             0.0000000000
     22060       194  CHL1      C5             33.3229380867       31.7910345691      -15.1009400000  MEMB      194             0.0000000000
     22061       194  CHL1      C6             34.1872505871       32.5440534073      -14.4871700000  MEMB      194             0.0000000000
     22062       194  CHL1      H6             34.8638335655       33.1069762830      -15.1469800000  MEMB      194             0.0000000000
     22063       194  CHL1      C7             34.2019591141       32.8766768645      -12.9928000000  MEMB      194             0.0000000000
     22064       194  CHL1      H7A            35.2252466402       32.9997448349      -12.5780000000  MEMB      194             0.0000000000
     22065       194  CHL1      H7B            33.6070999475       33.8053769651      -12.8586600000  MEMB      194             0.0000000000
     22066       194  CHL1      C8             33.3512878269       31.8750863985      -12.1611800000  MEMB      194             0.0000000000
     22067       194  CHL1      H8             34.0560941298       31.0568099355      -11.9004200000  MEMB      194             0.0000000000
     22068       194  CHL1      C14            33.0873111644       32.4695996977      -10.7710100000  MEMB      194             0.0000000000
     22069       194  CHL1      H14            32.3663856792       33.3149237569      -10.7748100000  MEMB      194             0.0000000000
     22070       194  CHL1      C15            34.2517275134       33.0454000512       -9.9989100000  MEMB      194             0.0000000000
     22071       194  CHL1      H15A           35.1568969872       32.4434513751      -10.2283200000  MEMB      194             0.0000000000
     22072       194  CHL1      H15B           34.3785561692       34.1195512847      -10.2527500000  MEMB      194             0.0000000000
     22073       194  CHL1      C16            33.8028275209       32.8759141170       -8.6098300000  MEMB      194             0.0000000000
     22074       194  CHL1      H16A           34.5778094366       32.2931120814       -8.0675600000  MEMB      194             0.0000000000
     22075       194  CHL1      H16B           33.7442840618       33.8646613416       -8.1065700000  MEMB      194             0.0000000000
     22076       194  CHL1      C17            32.4159855813       32.1539379162       -8.5597600000  MEMB      194             0.0000000000
     22077       194  CHL1      H17            31.6546747743       32.9550776174       -8.6733400000  MEMB      194             0.0000000000
     22078       194  CHL1      C13            32.3790858499       31.3893384965       -9.8594000000  MEMB      194             0.0000000000
     22079       194  CHL1      C18            33.3213635803       30.1817005584       -9.6815500000  MEMB      194             0.0000000000
     22080       194  CHL1      H18A           33.4120801233       29.6071013919      -10.6280800000  MEMB      194             0.0000000000
     22081       194  CHL1      H18B           34.2986852418       30.4166562591       -9.2082900000  MEMB      194             0.0000000000
     22082       194  CHL1      H18C           32.8427472070       29.4042422009       -9.0484600000  MEMB      194             0.0000000000
     22083       194  CHL1      C12            31.0497601368       31.0118002933      -10.5727800000  MEMB      194             0.0000000000
     22084       194  CHL1      H12A           30.6131241517       30.1931623110       -9.9616400000  MEMB      194             0.0000000000
     22085       194  CHL1      H12B           30.4149068342       31.9225617323      -10.6151500000  MEMB      194             0.0000000000
     22086       194  CHL1      C11            31.1840726769       30.5759349912      -12.0596700000  MEMB      194             0.0000000000
     22087       194  CHL1      H11A           31.6633519664       29.5784983485      -11.9610500000  MEMB      194             0.0000000000
     22088       194  CHL1      H11B           30.2868589026       30.3059204356      -12.6566800000  MEMB      194             0.0000000000
     22089       194  CHL1      C9             32.0627189765       31.4606241416      -12.8847500000  MEMB      194             0.0000000000
     22090       194  CHL1      H9             31.4475704428       32.3857608050      -12.8892300000  MEMB      194             0.0000000000
     22091       194  CHL1      C10            32.1869883482       31.0352966793      -14.3347600000  MEMB      194             0.0000000000
     22092       194  CHL1      C19            32.6208023560       29.5950969601      -14.2660800000  MEMB      194             0.0000000000
     22093       194  CHL1      H19A           33.0027934921       29.0504516170      -15.1558900000  MEMB      194             0.0000000000
     22094       194  CHL1      H19B           33.3605399217       29.4374032607      -13.4523000000  MEMB      194             0.0000000000
     22095       194  CHL1      H19C           31.7531157060       28.9772581560      -13.9503000000  MEMB      194             0.0000000000
     22096       194  CHL1      C1             30.8899193231       31.1967363828      -15.0327400000  MEMB      194             0.0000000000
     22097       194  CHL1      H1A            30.0507013637       30.6034077021      -14.6108400000  MEMB      194             0.0000000000
     22098       194  CHL1      H1B            30.6709901638       32.2836068866      -14.9612400000  MEMB      194             0.0000000000
     22099       194  CHL1      C2             31.0106865833       30.7523219350      -16.5026900000  MEMB      194             0.0000000000
     22100       194  CHL1      H2A            30.0102271813       30.8666103332      -16.9720800000  MEMB      194             0.0000000000
     22101       194  CHL1      H2B            31.1740125755       29.6626664703      -16.6451600000  MEMB      194             0.0000000000
     22102       194  CHL1      C20            32.1792027617       31.4734606313       -7.2075400000  MEMB      194             0.0000000000
     22103       194  CHL1      H20            33.0581772746       30.8028443426       -7.0979900000  MEMB      194             0.0000000000
     22104       194  CHL1      C21            30.9425888333       30.6059820592       -7.1812400000  MEMB      194             0.0000000000
     22105       194  CHL1      H21A           30.0044179744       31.2000625222       -7.2164300000  MEMB      194             0.0000000000
     22106       194  CHL1      H21B           30.9674470907       29.9291006156       -6.3005900000  MEMB      194             0.0000000000
     22107       194  CHL1      H21C           30.8980314391       29.9280793361       -8.0603200000  MEMB      194             0.0000000000
     22108       194  CHL1      C22            32.1078995853       32.5191453515       -6.0217500000  MEMB      194             0.0000000000
     22109       194  CHL1      H22A           33.1285864520       32.8774179541       -5.7684700000  MEMB      194             0.0000000000
     22110       194  CHL1      H22B           31.5146692007       33.3875004974       -6.3800400000  MEMB      194             0.0000000000
     22111       194  CHL1      C23            31.4531272045       31.9630665925       -4.7448200000  MEMB      194             0.0000000000
     22112       194  CHL1      H23A           30.3659357130       31.9136621932       -4.9682200000  MEMB      194             0.0000000000
     22113       194  CHL1      H23B           31.7965781999       30.9207040883       -4.5720800000  MEMB      194             0.0000000000
     22114       194  CHL1      C24            31.6011179030       32.7268361925       -3.3516000000  MEMB      194             0.0000000000
     22115       194  CHL1      H24A           31.2768720610       33.7881713319       -3.4039400000  MEMB      194             0.0000000000
     22116       194  CHL1      H24B           30.8129917592       32.3024883217       -2.6934800000  MEMB      194             0.0000000000
     22117       194  CHL1      C25            32.9870716557       32.7098699877       -2.7393300000  MEMB      194             0.0000000000
     22118       194  CHL1      H25            33.6088038042       33.2704808599       -3.4697400000  MEMB      194             0.0000000000
     22119       194  CHL1      C26            32.9245545229       33.3566833403       -1.3278300000  MEMB      194             0.0000000000
     22120       194  CHL1      H26A           32.5841417872       32.5242763974       -0.6755000000  MEMB      194             0.0000000000
     22121       194  CHL1      H26B           33.8310366502       33.7807632980       -0.8453600000  MEMB      194             0.0000000000
     22122       194  CHL1      H26C           32.1624776227       34.1503425802       -1.1740500000  MEMB      194             0.0000000000
     22123       194  CHL1      C27            33.5559934153       31.2799927831       -2.6108700000  MEMB      194             0.0000000000
     22124       194  CHL1      H27A           33.6468414954       30.7035941728       -3.5562900000  MEMB      194             0.0000000000
     22125       194  CHL1      H27B           34.6281519637       31.2530517083       -2.3209100000  MEMB      194             0.0000000000
     22126       194  CHL1      H27C           32.8759767349       30.6265361774       -2.0235900000  MEMB      194             0.0000000000
     22127       195  CHL1      C3             52.0521405307      -45.8833495966      -17.3147250000  MEMB      195             0.0000000000
     22128       195  CHL1      H3             52.7247303673      -45.2595793564      -16.6879350000  MEMB      195             0.0000000000
     22129       195  CHL1      O3             52.4243696693      -45.8574818034      -18.6852750000  MEMB      195             0.0000000000
     22130       195  CHL1      H3'            52.4124217841      -44.9233235405      -18.9062250000  MEMB      195             0.0000000000
     22131       195  CHL1      C4             51.8294753177      -47.3208939507      -16.7424150000  MEMB      195             0.0000000000
     22132       195  CHL1      H4A            50.9225340770      -47.7603271270      -17.2100450000  MEMB      195             0.0000000000
     22133       195  CHL1      H4B            52.6936917631      -47.9827669720      -16.9646450000  MEMB      195             0.0000000000
     22134       195  CHL1      C5             51.4563375807      -47.1916508954      -15.2563350000  MEMB      195             0.0000000000
     22135       195  CHL1      C6             52.2574620697      -47.7336869065      -14.3551950000  MEMB      195             0.0000000000
     22136       195  CHL1      H6             53.1738402153      -48.2199826527      -14.7209550000  MEMB      195             0.0000000000
     22137       195  CHL1      C7             52.0422190753      -47.6755851969      -12.8906650000  MEMB      195             0.0000000000
     22138       195  CHL1      H7A            52.5122275751      -48.5410167556      -12.3764150000  MEMB      195             0.0000000000
     22139       195  CHL1      H7B            52.7799141187      -46.8681179132      -12.6954650000  MEMB      195             0.0000000000
     22140       195  CHL1      C8             50.6589176230      -47.1513277637      -12.4115250000  MEMB      195             0.0000000000
     22141       195  CHL1      H8             49.9804946511      -48.0073095907      -12.6149150000  MEMB      195             0.0000000000
     22142       195  CHL1      C14            50.6823555727      -46.7367128230      -10.9560850000  MEMB      195             0.0000000000
     22143       195  CHL1      H14            51.3843817305      -45.8759442946      -10.9795550000  MEMB      195             0.0000000000
     22144       195  CHL1      C15            51.1760124585      -47.6884093731       -9.8977550000  MEMB      195             0.0000000000
     22145       195  CHL1      H15A           50.6821150385      -48.6772196702      -10.0101950000  MEMB      195             0.0000000000
     22146       195  CHL1      H15B           52.2815429039      -47.7941983915       -9.9282050000  MEMB      195             0.0000000000
     22147       195  CHL1      C16            50.6961389693      -47.0198452482       -8.6287550000  MEMB      195             0.0000000000
     22148       195  CHL1      H16A           50.3256541106      -47.8586958966       -8.0015450000  MEMB      195             0.0000000000
     22149       195  CHL1      H16B           51.5294178143      -46.5798940270       -8.0401950000  MEMB      195             0.0000000000
     22150       195  CHL1      C17            49.6755501502      -45.8962441305       -8.9855550000  MEMB      195             0.0000000000
     22151       195  CHL1      H17            50.2296785313      -44.9336762008       -9.0122550000  MEMB      195             0.0000000000
     22152       195  CHL1      C13            49.3172257747      -46.2233556181      -10.4240350000  MEMB      195             0.0000000000
     22153       195  CHL1      C18            48.2476797780      -47.3589501222      -10.4800550000  MEMB      195             0.0000000000
     22154       195  CHL1      H18A           48.4554812460      -48.1140520613       -9.6920550000  MEMB      195             0.0000000000
     22155       195  CHL1      H18B           47.2911029743      -46.9060909710      -10.1421450000  MEMB      195             0.0000000000
     22156       195  CHL1      H18C           48.1231695736      -47.8005411288      -11.4918950000  MEMB      195             0.0000000000
     22157       195  CHL1      C12            48.9008925070      -45.0345777533      -11.2604650000  MEMB      195             0.0000000000
     22158       195  CHL1      H12A           47.8982849151      -44.6729843209      -10.9468750000  MEMB      195             0.0000000000
     22159       195  CHL1      H12B           49.6294504382      -44.1959083018      -11.2732850000  MEMB      195             0.0000000000
     22160       195  CHL1      C11            48.8132871844      -45.4978670615      -12.7465250000  MEMB      195             0.0000000000
     22161       195  CHL1      H11A           47.9613560400      -46.2017953528      -12.8606150000  MEMB      195             0.0000000000
     22162       195  CHL1      H11B           48.5775291337      -44.5113719290      -13.1999250000  MEMB      195             0.0000000000
     22163       195  CHL1      C9             50.1544656454      -45.9806185422      -13.3200350000  MEMB      195             0.0000000000
     22164       195  CHL1      H9             50.8671323516      -45.1420079747      -13.1678650000  MEMB      195             0.0000000000
     22165       195  CHL1      C10            50.2017677594      -46.3259271925      -14.8814750000  MEMB      195             0.0000000000
     22166       195  CHL1      C19            48.8447014939      -47.0603718381      -15.1802950000  MEMB      195             0.0000000000
     22167       195  CHL1      H19A           48.9542019500      -47.5819177900      -16.1551350000  MEMB      195             0.0000000000
     22168       195  CHL1      H19B           48.5875438533      -47.8830775918      -14.4793250000  MEMB      195             0.0000000000
     22169       195  CHL1      H19C           47.9399194247      -46.4216688721      -15.2681950000  MEMB      195             0.0000000000
     22170       195  CHL1      C1             50.2147463750      -44.9924790409      -15.7458850000  MEMB      195             0.0000000000
     22171       195  CHL1      H1A            49.1662892556      -44.6387730182      -15.6460750000  MEMB      195             0.0000000000
     22172       195  CHL1      H1B            50.7513910936      -44.1882239664      -15.1986050000  MEMB      195             0.0000000000
     22173       195  CHL1      C2             50.7243800118      -45.1266854129      -17.1757450000  MEMB      195             0.0000000000
     22174       195  CHL1      H2A            50.8290361443      -44.1023766799      -17.5930750000  MEMB      195             0.0000000000
     22175       195  CHL1      H2B            49.9448505925      -45.6178444434      -17.7965750000  MEMB      195             0.0000000000
     22176       195  CHL1      C20            48.5632377259      -45.8562191454       -7.8710150000  MEMB      195             0.0000000000
     22177       195  CHL1      H20            48.0625745171      -46.8476197711       -7.8989150000  MEMB      195             0.0000000000
     22178       195  CHL1      C21            47.4643299853      -44.8261934963       -7.9958050000  MEMB      195             0.0000000000
     22179       195  CHL1      H21A           46.9945653899      -44.9085471346       -8.9992350000  MEMB      195             0.0000000000
     22180       195  CHL1      H21B           47.8188225710      -43.7765569200       -7.9126850000  MEMB      195             0.0000000000
     22181       195  CHL1      H21C           46.6194608513      -44.8636973977       -7.2753050000  MEMB      195             0.0000000000
     22182       195  CHL1      C22            49.3181348813      -45.7611366059       -6.4668250000  MEMB      195             0.0000000000
     22183       195  CHL1      H22A           49.7857122732      -46.7438669601       -6.2433650000  MEMB      195             0.0000000000
     22184       195  CHL1      H22B           50.1979264428      -45.0975564356       -6.6080850000  MEMB      195             0.0000000000
     22185       195  CHL1      C23            48.5075646707      -45.2557168910       -5.3105250000  MEMB      195             0.0000000000
     22186       195  CHL1      H23A           48.3715358004      -44.1531043197       -5.3188150000  MEMB      195             0.0000000000
     22187       195  CHL1      H23B           47.5138669753      -45.7513343868       -5.2752250000  MEMB      195             0.0000000000
     22188       195  CHL1      C24            49.0903084363      -45.6327942865       -3.9054450000  MEMB      195             0.0000000000
     22189       195  CHL1      H24A           49.2895311252      -46.7235342047       -3.9755650000  MEMB      195             0.0000000000
     22190       195  CHL1      H24B           50.0088852590      -45.0185877277       -3.7901250000  MEMB      195             0.0000000000
     22191       195  CHL1      C25            48.1054862514      -45.5231524324       -2.7608250000  MEMB      195             0.0000000000
     22192       195  CHL1      H25            47.0941310764      -45.9345707392       -2.9663050000  MEMB      195             0.0000000000
     22193       195  CHL1      C26            48.6630835499      -46.1382918602       -1.4387350000  MEMB      195             0.0000000000
     22194       195  CHL1      H26A           49.6257707321      -45.6189812395       -1.2440950000  MEMB      195             0.0000000000
     22195       195  CHL1      H26B           47.9021072680      -46.0230833722       -0.6375050000  MEMB      195             0.0000000000
     22196       195  CHL1      H26C           49.0462374470      -47.1755064463       -1.5469650000  MEMB      195             0.0000000000
     22197       195  CHL1      C27            47.8786244900      -43.9738390441       -2.4778850000  MEMB      195             0.0000000000
     22198       195  CHL1      H27A           47.5768569084      -43.4440267470       -3.4066250000  MEMB      195             0.0000000000
     22199       195  CHL1      H27B           47.0521163626      -43.9056246219       -1.7385950000  MEMB      195             0.0000000000
     22200       195  CHL1      H27C           48.8454697283      -43.5884852175       -2.0892550000  MEMB      195             0.0000000000
     22201       196  CHL1      C3            -15.0264128363      -17.1927917558      -17.2827000000  MEMB      196             0.0000000000
     22202       196  CHL1      H3            -15.1883621847      -18.2670475850      -17.0501800000  MEMB      196             0.0000000000
     22203       196  CHL1      O3            -14.8638855637      -16.9462334442      -18.7173000000  MEMB      196             0.0000000000
     22204       196  CHL1      H3'           -15.0569341903      -16.0059092683      -18.7278000000  MEMB      196             0.0000000000
     22205       196  CHL1      C4            -16.1194535105      -16.2591991899      -16.6378000000  MEMB      196             0.0000000000
     22206       196  CHL1      H4A           -15.7622747152      -15.2561731117      -16.9551100000  MEMB      196             0.0000000000
     22207       196  CHL1      H4B           -17.0754245177      -16.4381548938      -17.1748300000  MEMB      196             0.0000000000
     22208       196  CHL1      C5            -16.2371724132      -16.4705697823      -15.1588200000  MEMB      196             0.0000000000
     22209       196  CHL1      C6            -17.3319590441      -16.8717592074      -14.6094200000  MEMB      196             0.0000000000
     22210       196  CHL1      H6            -18.1700083063      -17.2688512141      -15.2010100000  MEMB      196             0.0000000000
     22211       196  CHL1      C7            -17.4357096966      -17.0448922413      -13.0296700000  MEMB      196             0.0000000000
     22212       196  CHL1      H7A           -18.4986519312      -16.8450758786      -12.7756100000  MEMB      196             0.0000000000
     22213       196  CHL1      H7B           -17.3428971236      -18.1356831920      -12.8402700000  MEMB      196             0.0000000000
     22214       196  CHL1      C8            -16.3768683575      -16.2719879559      -12.2970200000  MEMB      196             0.0000000000
     22215       196  CHL1      H8            -16.5971227506      -15.1846717395      -12.3566300000  MEMB      196             0.0000000000
     22216       196  CHL1      C14           -16.3782269731      -16.6535630949      -10.8134800000  MEMB      196             0.0000000000
     22217       196  CHL1      H14           -16.2918131010      -17.7595634383      -10.7534200000  MEMB      196             0.0000000000
     22218       196  CHL1      C15           -17.6784717089      -16.4193431594       -9.9707700000  MEMB      196             0.0000000000
     22219       196  CHL1      H15A          -18.0687452102      -15.3917178053      -10.1319900000  MEMB      196             0.0000000000
     22220       196  CHL1      H15B          -18.4338558463      -17.1956481127      -10.2179100000  MEMB      196             0.0000000000
     22221       196  CHL1      C16           -17.1503535790      -16.5692233121       -8.5421500000  MEMB      196             0.0000000000
     22222       196  CHL1      H16A          -17.4498625196      -15.5910189507       -8.1088900000  MEMB      196             0.0000000000
     22223       196  CHL1      H16B          -17.5294455857      -17.5073161540       -8.0832400000  MEMB      196             0.0000000000
     22224       196  CHL1      C17           -15.5879559267      -16.7564082088       -8.5648900000  MEMB      196             0.0000000000
     22225       196  CHL1      H17           -15.5096972462      -17.8490214147       -8.7503400000  MEMB      196             0.0000000000
     22226       196  CHL1      C13           -15.2556875599      -16.0629182059       -9.9120000000  MEMB      196             0.0000000000
     22227       196  CHL1      C18           -15.3349896714      -14.5060268824       -9.7792000000  MEMB      196             0.0000000000
     22228       196  CHL1      H18A          -14.4303218805      -14.2007491891       -9.2111300000  MEMB      196             0.0000000000
     22229       196  CHL1      H18B          -15.3140970564      -14.0183813755      -10.7772400000  MEMB      196             0.0000000000
     22230       196  CHL1      H18C          -16.2724191157      -14.2005633240       -9.2671200000  MEMB      196             0.0000000000
     22231       196  CHL1      C12           -13.8832625274      -16.4440840177      -10.5478200000  MEMB      196             0.0000000000
     22232       196  CHL1      H12A          -13.0369097218      -15.9940691675       -9.9861300000  MEMB      196             0.0000000000
     22233       196  CHL1      H12B          -13.6369938412      -17.5144413704      -10.3804700000  MEMB      196             0.0000000000
     22234       196  CHL1      C11           -13.8739615270      -16.1982835076      -12.0068500000  MEMB      196             0.0000000000
     22235       196  CHL1      H11A          -13.8794662608      -15.0902985341      -12.0885100000  MEMB      196             0.0000000000
     22236       196  CHL1      H11B          -12.9310370783      -16.6344684453      -12.4005000000  MEMB      196             0.0000000000
     22237       196  CHL1      C9            -15.0640954341      -16.6331515286      -12.8913300000  MEMB      196             0.0000000000
     22238       196  CHL1      H9            -15.0600329968      -17.7436187956      -12.8569900000  MEMB      196             0.0000000000
     22239       196  CHL1      C10           -14.9262550171      -16.1824860989      -14.2930600000  MEMB      196             0.0000000000
     22240       196  CHL1      C19           -14.5574280007      -14.6889752214      -14.3096500000  MEMB      196             0.0000000000
     22241       196  CHL1      H19A          -14.3521992670      -14.3700870119      -15.3539300000  MEMB      196             0.0000000000
     22242       196  CHL1      H19B          -15.4344911566      -14.1357018359      -13.9109400000  MEMB      196             0.0000000000
     22243       196  CHL1      H19C          -13.5711038533      -14.4798429193      -13.8429900000  MEMB      196             0.0000000000
     22244       196  CHL1      C1            -13.8607149794      -17.0493904695      -14.9710000000  MEMB      196             0.0000000000
     22245       196  CHL1      H1A           -12.8502278091      -16.9228591354      -14.5269100000  MEMB      196             0.0000000000
     22246       196  CHL1      H1B           -14.1741904252      -18.1080162539      -14.8470700000  MEMB      196             0.0000000000
     22247       196  CHL1      C2            -13.7359718288      -16.8087493041      -16.5384800000  MEMB      196             0.0000000000
     22248       196  CHL1      H2A           -12.8837169238      -17.3616711385      -16.9882200000  MEMB      196             0.0000000000
     22249       196  CHL1      H2B           -13.5425024299      -15.7277017954      -16.7064700000  MEMB      196             0.0000000000
     22250       196  CHL1      C20           -14.8119772081      -16.4364421647       -7.2420100000  MEMB      196             0.0000000000
     22251       196  CHL1      H20           -15.0228579839      -15.3604342549       -7.0629800000  MEMB      196             0.0000000000
     22252       196  CHL1      C21           -13.2462169474      -16.5949324197       -7.4063500000  MEMB      196             0.0000000000
     22253       196  CHL1      H21A          -12.7353450664      -15.7390686343       -7.8970900000  MEMB      196             0.0000000000
     22254       196  CHL1      H21B          -12.8662794387      -17.4773885698       -7.9642400000  MEMB      196             0.0000000000
     22255       196  CHL1      H21C          -12.9756131822      -16.7648436997       -6.3422900000  MEMB      196             0.0000000000
     22256       196  CHL1      C22           -15.3528820060      -17.1973030932       -6.0465900000  MEMB      196             0.0000000000
     22257       196  CHL1      H22A          -14.6788671493      -17.1400432479       -5.1652600000  MEMB      196             0.0000000000
     22258       196  CHL1      H22B          -16.2659417304      -16.6700919266       -5.6962900000  MEMB      196             0.0000000000
     22259       196  CHL1      C23           -15.5816969223      -18.7233116432       -6.2224600000  MEMB      196             0.0000000000
     22260       196  CHL1      H23A          -16.4166928979      -18.8623470322       -6.9420300000  MEMB      196             0.0000000000
     22261       196  CHL1      H23B          -14.7953533360      -19.3448170431       -6.7017500000  MEMB      196             0.0000000000
     22262       196  CHL1      C24           -15.9169392756      -19.4060757707       -4.8852600000  MEMB      196             0.0000000000
     22263       196  CHL1      H24A          -16.2265923651      -20.4412305072       -5.1438800000  MEMB      196             0.0000000000
     22264       196  CHL1      H24B          -14.9739130666      -19.3540623351       -4.3001600000  MEMB      196             0.0000000000
     22265       196  CHL1      C25           -16.9417061021      -18.7448832817       -3.9523500000  MEMB      196             0.0000000000
     22266       196  CHL1      H25           -16.6606616258      -17.6707104744       -3.9135600000  MEMB      196             0.0000000000
     22267       196  CHL1      C26           -18.3651663401      -19.0159420057       -4.5108800000  MEMB      196             0.0000000000
     22268       196  CHL1      H26A          -19.1520293908      -18.3577702635       -4.0842900000  MEMB      196             0.0000000000
     22269       196  CHL1      H26B          -18.3340881280      -18.8681106517       -5.6115600000  MEMB      196             0.0000000000
     22270       196  CHL1      H26C          -18.7060019939      -20.0701747028       -4.4288500000  MEMB      196             0.0000000000
     22271       196  CHL1      C27           -16.8289253365      -19.3510231776       -2.5857400000  MEMB      196             0.0000000000
     22272       196  CHL1      H27A          -17.2921963239      -20.3599585506       -2.6276300000  MEMB      196             0.0000000000
     22273       196  CHL1      H27B          -15.8362364587      -19.6396417039       -2.1788100000  MEMB      196             0.0000000000
     22274       196  CHL1      H27C          -17.4417737617      -18.7514733853       -1.8791600000  MEMB      196             0.0000000000
     22275       197  CHL1      C3              6.2911830341      -52.7235074829      -17.3127100000  MEMB      197             0.0000000000
     22276       197  CHL1      H3              5.5551559539      -53.4686694691      -16.9421500000  MEMB      197             0.0000000000
     22277       197  CHL1      O3              6.3081711259      -52.6403887171      -18.6872900000  MEMB      197             0.0000000000
     22278       197  CHL1      H3'             6.5080578311      -53.5249954170      -19.0021000000  MEMB      197             0.0000000000
     22279       197  CHL1      C4              6.0674737788      -51.2948073970      -16.7932500000  MEMB      197             0.0000000000
     22280       197  CHL1      H4A             6.7884416629      -50.5939381666      -17.2658000000  MEMB      197             0.0000000000
     22281       197  CHL1      H4B             5.0212651841      -51.0250344147      -17.0520600000  MEMB      197             0.0000000000
     22282       197  CHL1      C5              6.2812434894      -51.2632256727      -15.3403500000  MEMB      197             0.0000000000
     22283       197  CHL1      C6              5.3752346815      -50.7105932949      -14.4304100000  MEMB      197             0.0000000000
     22284       197  CHL1      H6              4.4369447292      -50.2505124473      -14.7738300000  MEMB      197             0.0000000000
     22285       197  CHL1      C7              5.5502640373      -50.5272255982      -12.9520400000  MEMB      197             0.0000000000
     22286       197  CHL1      H7A             5.3791785488      -49.4757014983      -12.6368400000  MEMB      197             0.0000000000
     22287       197  CHL1      H7B             4.7566173163      -51.1559760768      -12.4947400000  MEMB      197             0.0000000000
     22288       197  CHL1      C8              6.9028540129      -50.9849341054      -12.4470600000  MEMB      197             0.0000000000
     22289       197  CHL1      H8              7.6294817881      -50.1651238134      -12.6321200000  MEMB      197             0.0000000000
     22290       197  CHL1      C14             6.7498749092      -51.2469201001      -10.9093500000  MEMB      197             0.0000000000
     22291       197  CHL1      H14             5.9596223779      -52.0251306937      -10.8445600000  MEMB      197             0.0000000000
     22292       197  CHL1      C15             6.4206348733      -50.1298118184       -9.9506600000  MEMB      197             0.0000000000
     22293       197  CHL1      H15A            7.1440694502      -49.2876486567       -9.9090600000  MEMB      197             0.0000000000
     22294       197  CHL1      H15B            5.3549042787      -49.8165602584       -9.9710600000  MEMB      197             0.0000000000
     22295       197  CHL1      C16             6.4612372577      -50.9057305998       -8.5992900000  MEMB      197             0.0000000000
     22296       197  CHL1      H16A            6.7452094318      -50.1344474282       -7.8517700000  MEMB      197             0.0000000000
     22297       197  CHL1      H16B            5.5266260246      -51.3504866555       -8.1955400000  MEMB      197             0.0000000000
     22298       197  CHL1      C17             7.4802312554      -52.0948598866       -8.8347100000  MEMB      197             0.0000000000
     22299       197  CHL1      H17             6.8046145851      -52.9745747835       -8.8976900000  MEMB      197             0.0000000000
     22300       197  CHL1      C13             8.0065572457      -51.8466704412      -10.2236100000  MEMB      197             0.0000000000
     22301       197  CHL1      C18             9.1060247577      -50.8412317018      -10.2038900000  MEMB      197             0.0000000000
     22302       197  CHL1      H18A           10.0330461771      -51.4306052262      -10.0377300000  MEMB      197             0.0000000000
     22303       197  CHL1      H18B            9.1333534424      -50.3317151184      -11.1907900000  MEMB      197             0.0000000000
     22304       197  CHL1      H18C            8.9365583299      -50.1309905295       -9.3665400000  MEMB      197             0.0000000000
     22305       197  CHL1      C12             8.4055364217      -53.0993376125      -10.9943000000  MEMB      197             0.0000000000
     22306       197  CHL1      H12A            9.2621077006      -53.5869371830      -10.4816000000  MEMB      197             0.0000000000
     22307       197  CHL1      H12B            7.5831877776      -53.8463071683      -10.9847800000  MEMB      197             0.0000000000
     22308       197  CHL1      C11             8.6071606010      -52.8167360916      -12.4716500000  MEMB      197             0.0000000000
     22309       197  CHL1      H11A            9.4001735178      -52.0413892843      -12.5370600000  MEMB      197             0.0000000000
     22310       197  CHL1      H11B            8.9162351998      -53.7704460354      -12.9504400000  MEMB      197             0.0000000000
     22311       197  CHL1      C9              7.4124925979      -52.1693259210      -13.1431100000  MEMB      197             0.0000000000
     22312       197  CHL1      H9              6.4995374725      -52.8022829597      -13.1287900000  MEMB      197             0.0000000000
     22313       197  CHL1      C10             7.5524589224      -51.9507003849      -14.7369600000  MEMB      197             0.0000000000
     22314       197  CHL1      C19             8.7628933389      -51.0677835904      -15.0774300000  MEMB      197             0.0000000000
     22315       197  CHL1      H19A            8.8660994936      -50.9450655391      -16.1767900000  MEMB      197             0.0000000000
     22316       197  CHL1      H19B            8.7202554248      -50.0547812123      -14.6231900000  MEMB      197             0.0000000000
     22317       197  CHL1      H19C            9.6326203873      -51.5854785996      -14.6193100000  MEMB      197             0.0000000000
     22318       197  CHL1      C1              7.7309475337      -53.3564284040      -15.3922200000  MEMB      197             0.0000000000
     22319       197  CHL1      H1A             8.7729185305      -53.7083939733      -15.2348900000  MEMB      197             0.0000000000
     22320       197  CHL1      H1B             7.0279742674      -54.0643302534      -14.9033200000  MEMB      197             0.0000000000
     22321       197  CHL1      C2              7.6277831263      -53.3282424440      -16.9265300000  MEMB      197             0.0000000000
     22322       197  CHL1      H2A             7.6700666496      -54.3223547795      -17.4207700000  MEMB      197             0.0000000000
     22323       197  CHL1      H2B             8.4229493231      -52.6754187169      -17.3458700000  MEMB      197             0.0000000000
     22324       197  CHL1      C20             8.5130424182      -52.3845965363       -7.7090300000  MEMB      197             0.0000000000
     22325       197  CHL1      H20             9.5014962787      -51.9664941775       -7.9962200000  MEMB      197             0.0000000000
     22326       197  CHL1      C21             8.8137777178      -53.9100724276       -7.6152000000  MEMB      197             0.0000000000
     22327       197  CHL1      H21A            7.9044826445      -54.3582575590       -7.1606100000  MEMB      197             0.0000000000
     22328       197  CHL1      H21B            9.6392409483      -54.0646417372       -6.8878500000  MEMB      197             0.0000000000
     22329       197  CHL1      H21C            9.1785336231      -54.3686581797       -8.5591200000  MEMB      197             0.0000000000
     22330       197  CHL1      C22             8.0779026695      -51.7837432689       -6.3351600000  MEMB      197             0.0000000000
     22331       197  CHL1      H22A            8.1007394301      -50.6760315741       -6.4174600000  MEMB      197             0.0000000000
     22332       197  CHL1      H22B            6.9980381219      -52.0418198369       -6.2952000000  MEMB      197             0.0000000000
     22333       197  CHL1      C23             8.8016634192      -52.2442466340       -5.0775100000  MEMB      197             0.0000000000
     22334       197  CHL1      H23A            8.5695994652      -53.3247561980       -4.9636200000  MEMB      197             0.0000000000
     22335       197  CHL1      H23B            9.9009757068      -52.1559731140       -5.2118500000  MEMB      197             0.0000000000
     22336       197  CHL1      C24             8.3655392672      -51.5999706197       -3.7528700000  MEMB      197             0.0000000000
     22337       197  CHL1      H24A            8.1781611241      -50.5218421630       -3.9448000000  MEMB      197             0.0000000000
     22338       197  CHL1      H24B            7.4149379326      -52.0342458808       -3.3759300000  MEMB      197             0.0000000000
     22339       197  CHL1      C25             9.3101854336      -51.7930782632       -2.5295800000  MEMB      197             0.0000000000
     22340       197  CHL1      H25            10.3367750326      -51.4342777320       -2.7569500000  MEMB      197             0.0000000000
     22341       197  CHL1      C26             8.7122835702      -51.3232423077       -1.2480800000  MEMB      197             0.0000000000
     22342       197  CHL1      H26A            7.6212942615      -51.4995957835       -1.3618700000  MEMB      197             0.0000000000
     22343       197  CHL1      H26B            9.1428860358      -51.9843297312       -0.4658600000  MEMB      197             0.0000000000
     22344       197  CHL1      H26C            9.0607970021      -50.2901862672       -1.0344200000  MEMB      197             0.0000000000
     22345       197  CHL1      C27             9.4417029685      -53.3528728341       -2.2629600000  MEMB      197             0.0000000000
     22346       197  CHL1      H27A            9.9934532477      -53.9096794776       -3.0502700000  MEMB      197             0.0000000000
     22347       197  CHL1      H27B           10.0908454874      -53.5573679834       -1.3848300000  MEMB      197             0.0000000000
     22348       197  CHL1      H27C            8.4592038365      -53.7742322632       -1.9604800000  MEMB      197             0.0000000000
     22349       198  CHL1      C3            -21.2410816963      -23.7570179853      -17.4202700000  MEMB      198             0.0000000000
     22350       198  CHL1      H3            -21.9083046955      -22.9427800386      -17.7754400000  MEMB      198             0.0000000000
     22351       198  CHL1      O3            -20.7618481037      -24.4641916147      -18.5797300000  MEMB      198             0.0000000000
     22352       198  CHL1      H3'           -21.5165101595      -24.9828079747      -18.8680500000  MEMB      198             0.0000000000
     22353       198  CHL1      C4            -20.0144672395      -23.0722082266      -16.7127800000  MEMB      198             0.0000000000
     22354       198  CHL1      H4A           -19.1816124238      -23.7962852623      -16.5847800000  MEMB      198             0.0000000000
     22355       198  CHL1      H4B           -19.6755152265      -22.2597069986      -17.3904800000  MEMB      198             0.0000000000
     22356       198  CHL1      C5            -20.3671570079      -22.5275097664      -15.3293200000  MEMB      198             0.0000000000
     22357       198  CHL1      C6            -20.0547658808      -21.2767165377      -14.9195100000  MEMB      198             0.0000000000
     22358       198  CHL1      H6            -19.3272059303      -20.7175038296      -15.5260900000  MEMB      198             0.0000000000
     22359       198  CHL1      C7            -20.3394958502      -20.8055056917      -13.4805700000  MEMB      198             0.0000000000
     22360       198  CHL1      H7A           -19.5868937173      -20.0405925638      -13.1927800000  MEMB      198             0.0000000000
     22361       198  CHL1      H7B           -21.2228191743      -20.1429718771      -13.3575900000  MEMB      198             0.0000000000
     22362       198  CHL1      C8            -20.4598235335      -22.0688573780      -12.5081000000  MEMB      198             0.0000000000
     22363       198  CHL1      H8            -19.4876303465      -22.6063676915      -12.4930100000  MEMB      198             0.0000000000
     22364       198  CHL1      C14           -20.8257144455      -21.5518739374      -11.1070900000  MEMB      198             0.0000000000
     22365       198  CHL1      H14           -21.7962341065      -21.0111237149      -11.1084800000  MEMB      198             0.0000000000
     22366       198  CHL1      C15           -19.9624274310      -20.5295546736      -10.3712800000  MEMB      198             0.0000000000
     22367       198  CHL1      H15A          -18.9126548884      -20.7905063515      -10.6246800000  MEMB      198             0.0000000000
     22368       198  CHL1      H15B          -20.1952841038      -19.5335870675      -10.8050400000  MEMB      198             0.0000000000
     22369       198  CHL1      C16           -20.3566602781      -20.7119379686       -8.8096600000  MEMB      198             0.0000000000
     22370       198  CHL1      H16A          -19.4559496787      -20.8969043559       -8.1861000000  MEMB      198             0.0000000000
     22371       198  CHL1      H16B          -20.8888860511      -19.7841269778       -8.5092800000  MEMB      198             0.0000000000
     22372       198  CHL1      C17           -21.3412248656      -21.9128401858       -8.7915800000  MEMB      198             0.0000000000
     22373       198  CHL1      H17           -22.3439062802      -21.4864022361       -9.0086100000  MEMB      198             0.0000000000
     22374       198  CHL1      C13           -21.0207647433      -22.7340320687      -10.1140300000  MEMB      198             0.0000000000
     22375       198  CHL1      C18           -19.8247986011      -23.6815369590      -10.0983900000  MEMB      198             0.0000000000
     22376       198  CHL1      H18A          -19.4732093268      -23.9323624176      -11.1220100000  MEMB      198             0.0000000000
     22377       198  CHL1      H18B          -18.9574468318      -23.1820696740       -9.6161500000  MEMB      198             0.0000000000
     22378       198  CHL1      H18C          -19.9760262682      -24.5934410590       -9.4820500000  MEMB      198             0.0000000000
     22379       198  CHL1      C12           -22.2889718802      -23.3968406760      -10.6695900000  MEMB      198             0.0000000000
     22380       198  CHL1      H12A          -22.5990496487      -24.2368150199      -10.0118600000  MEMB      198             0.0000000000
     22381       198  CHL1      H12B          -23.1623245923      -22.7415931084      -10.8751000000  MEMB      198             0.0000000000
     22382       198  CHL1      C11           -22.0051047286      -24.0775143913      -12.1043400000  MEMB      198             0.0000000000
     22383       198  CHL1      H11A          -21.1771063977      -24.8084830854      -11.9842100000  MEMB      198             0.0000000000
     22384       198  CHL1      H11B          -22.8847408028      -24.6959328220      -12.3838300000  MEMB      198             0.0000000000
     22385       198  CHL1      C9            -21.5095870585      -22.9488093495      -13.0838500000  MEMB      198             0.0000000000
     22386       198  CHL1      H9            -22.4168340953      -22.3309995817      -13.2557100000  MEMB      198             0.0000000000
     22387       198  CHL1      C10           -21.0351429198      -23.5927969233      -14.4719700000  MEMB      198             0.0000000000
     22388       198  CHL1      C19           -20.0085467474      -24.7714385335      -14.3225100000  MEMB      198             0.0000000000
     22389       198  CHL1      H19A          -20.5135219264      -25.6655626138      -13.8984100000  MEMB      198             0.0000000000
     22390       198  CHL1      H19B          -19.6039429106      -25.1050667932      -15.3019500000  MEMB      198             0.0000000000
     22391       198  CHL1      H19C          -19.0247731520      -24.4243704786      -13.9403500000  MEMB      198             0.0000000000
     22392       198  CHL1      C1            -22.3084654849      -24.0887306310      -15.1938300000  MEMB      198             0.0000000000
     22393       198  CHL1      H1A           -22.7720493772      -24.9234097386      -14.6257500000  MEMB      198             0.0000000000
     22394       198  CHL1      H1B           -22.9614334530      -23.1919339986      -15.2546600000  MEMB      198             0.0000000000
     22395       198  CHL1      C2            -21.9916206277      -24.7365819890      -16.5683300000  MEMB      198             0.0000000000
     22396       198  CHL1      H2A           -22.9468020462      -25.0535625794      -17.0389400000  MEMB      198             0.0000000000
     22397       198  CHL1      H2B           -21.5066546590      -25.7301439577      -16.4589800000  MEMB      198             0.0000000000
     22398       198  CHL1      C20           -21.2498777729      -22.7154939545       -7.4822400000  MEMB      198             0.0000000000
     22399       198  CHL1      H20           -20.2237878263      -23.1041774763       -7.3079700000  MEMB      198             0.0000000000
     22400       198  CHL1      C21           -22.2635412421      -23.8423305334       -7.3627600000  MEMB      198             0.0000000000
     22401       198  CHL1      H21A          -23.2722463574      -23.4179002266       -7.5543200000  MEMB      198             0.0000000000
     22402       198  CHL1      H21B          -22.1471169976      -24.2144791855       -6.3224300000  MEMB      198             0.0000000000
     22403       198  CHL1      H21C          -22.0835941050      -24.6414922210       -8.1132700000  MEMB      198             0.0000000000
     22404       198  CHL1      C22           -21.4706695739      -21.7746018680       -6.2574600000  MEMB      198             0.0000000000
     22405       198  CHL1      H22A          -20.8905509973      -20.8427619846       -6.4290600000  MEMB      198             0.0000000000
     22406       198  CHL1      H22B          -22.5225174624      -21.4171977473       -6.2717100000  MEMB      198             0.0000000000
     22407       198  CHL1      C23           -21.1333256999      -22.2334145993       -4.8445300000  MEMB      198             0.0000000000
     22408       198  CHL1      H23A          -21.9317017269      -22.8909991596       -4.4389600000  MEMB      198             0.0000000000
     22409       198  CHL1      H23B          -20.2204262110      -22.8621771514       -4.7697500000  MEMB      198             0.0000000000
     22410       198  CHL1      C24           -21.0149269469      -21.0147530823       -3.8887500000  MEMB      198             0.0000000000
     22411       198  CHL1      H24A          -20.0894366999      -20.4563904569       -4.1457100000  MEMB      198             0.0000000000
     22412       198  CHL1      H24B          -21.9495275945      -20.4311098665       -4.0308500000  MEMB      198             0.0000000000
     22413       198  CHL1      C25           -21.0272234715      -21.6401451837       -2.4657100000  MEMB      198             0.0000000000
     22414       198  CHL1      H25           -21.7103187658      -22.5158330866       -2.4953600000  MEMB      198             0.0000000000
     22415       198  CHL1      C26           -19.7001309213      -22.1605546161       -1.9363800000  MEMB      198             0.0000000000
     22416       198  CHL1      H26A          -19.3949561154      -23.1332679813       -2.3780100000  MEMB      198             0.0000000000
     22417       198  CHL1      H26B          -18.8439937426      -21.4728724171       -2.1050100000  MEMB      198             0.0000000000
     22418       198  CHL1      H26C          -19.7425507034      -22.3745341681       -0.8470100000  MEMB      198             0.0000000000
     22419       198  CHL1      C27           -21.4942829106      -20.5488557634       -1.4807100000  MEMB      198             0.0000000000
     22420       198  CHL1      H27A          -20.7962503405      -19.6846305953       -1.4668600000  MEMB      198             0.0000000000
     22421       198  CHL1      H27B          -22.4754133225      -20.1179019655       -1.7739300000  MEMB      198             0.0000000000
     22422       198  CHL1      H27C          -21.5499288674      -21.0053186179       -0.4693400000  MEMB      198             0.0000000000
     22423       199  CHL1      C3             28.2653381036       47.4664030231      -17.3315100000  MEMB      199             0.0000000000
     22424       199  CHL1      H3             29.0602355323       46.6905138561      -17.3100300000  MEMB      199             0.0000000000
     22425       199  CHL1      O3             27.9872124964       47.7187127769      -18.6684900000  MEMB      199             0.0000000000
     22426       199  CHL1      H3'            28.7818743635       48.1349520681      -19.0103200000  MEMB      199             0.0000000000
     22427       199  CHL1      C4             26.9715195022       46.9934271070      -16.6585000000  MEMB      199             0.0000000000
     22428       199  CHL1      H4A            26.2260565046       47.7954216130      -16.8466700000  MEMB      199             0.0000000000
     22429       199  CHL1      H4B            26.5860112828       46.1363341043      -17.2510300000  MEMB      199             0.0000000000
     22430       199  CHL1      C5             27.0968872824       46.7706860507      -15.1428500000  MEMB      199             0.0000000000
     22431       199  CHL1      C6             26.6743094777       45.6296982121      -14.6126400000  MEMB      199             0.0000000000
     22432       199  CHL1      H6             26.2030900897       44.9079328048      -15.2960300000  MEMB      199             0.0000000000
     22433       199  CHL1      C7             26.7581450869       45.1823989589      -13.1930400000  MEMB      199             0.0000000000
     22434       199  CHL1      H7A            25.8293296774       44.6441595683      -12.9068200000  MEMB      199             0.0000000000
     22435       199  CHL1      H7B            27.5304543545       44.3853152766      -13.1429300000  MEMB      199             0.0000000000
     22436       199  CHL1      C8             27.1996323432       46.3499877437      -12.2672500000  MEMB      199             0.0000000000
     22437       199  CHL1      H8             26.2847444527       46.9481870335      -12.0686000000  MEMB      199             0.0000000000
     22438       199  CHL1      C14            27.7077159236       45.8507655609      -10.9483300000  MEMB      199             0.0000000000
     22439       199  CHL1      H14            28.7115756030       45.4086233763      -11.1247100000  MEMB      199             0.0000000000
     22440       199  CHL1      C15            26.8644061610       44.7570280669      -10.2547800000  MEMB      199             0.0000000000
     22441       199  CHL1      H15A           25.7774419174       44.8813538291      -10.4481000000  MEMB      199             0.0000000000
     22442       199  CHL1      H15B           27.0829279598       43.8088143594      -10.7909300000  MEMB      199             0.0000000000
     22443       199  CHL1      C16            27.2894116287       44.9430184692       -8.8051300000  MEMB      199             0.0000000000
     22444       199  CHL1      H16A           26.3679206621       45.1023364333       -8.2053100000  MEMB      199             0.0000000000
     22445       199  CHL1      H16B           27.7658861517       44.0244423823       -8.4007600000  MEMB      199             0.0000000000
     22446       199  CHL1      C17            28.2602538054       46.1961348421       -8.7026400000  MEMB      199             0.0000000000
     22447       199  CHL1      H17            29.2799683583       45.8012492072       -8.8990300000  MEMB      199             0.0000000000
     22448       199  CHL1      C13            27.8930979097       46.9872185549       -9.9010200000  MEMB      199             0.0000000000
     22449       199  CHL1      C18            26.5900944158       47.8208324140       -9.6222900000  MEMB      199             0.0000000000
     22450       199  CHL1      H18A           25.7816701969       47.0877908370       -9.4139100000  MEMB      199             0.0000000000
     22451       199  CHL1      H18B           26.6884692517       48.5920456336       -8.8286500000  MEMB      199             0.0000000000
     22452       199  CHL1      H18C           26.1449106801       48.3570788111      -10.4874900000  MEMB      199             0.0000000000
     22453       199  CHL1      C12            28.9709701836       47.9224935714      -10.5299700000  MEMB      199             0.0000000000
     22454       199  CHL1      H12A           29.0245310187       48.7902460251       -9.8382600000  MEMB      199             0.0000000000
     22455       199  CHL1      H12B           29.9681264072       47.4679467030      -10.7126800000  MEMB      199             0.0000000000
     22456       199  CHL1      C11            28.5735750651       48.3968271543      -11.9718000000  MEMB      199             0.0000000000
     22457       199  CHL1      H11A           27.7282379592       49.1129328665      -11.8886500000  MEMB      199             0.0000000000
     22458       199  CHL1      H11B           29.3824547532       48.9345370117      -12.5111500000  MEMB      199             0.0000000000
     22459       199  CHL1      C9             28.1804253365       47.3021853332      -12.9176100000  MEMB      199             0.0000000000
     22460       199  CHL1      H9             29.0535547576       46.6510117834      -13.1365500000  MEMB      199             0.0000000000
     22461       199  CHL1      C10            27.7743223223       47.8221269302      -14.2926700000  MEMB      199             0.0000000000
     22462       199  CHL1      C19            26.7199146907       48.9733382538      -14.1243900000  MEMB      199             0.0000000000
     22463       199  CHL1      H19A           27.2693937283       49.8959163087      -13.8393800000  MEMB      199             0.0000000000
     22464       199  CHL1      H19B           26.3123374392       49.3117044838      -15.1009700000  MEMB      199             0.0000000000
     22465       199  CHL1      H19C           25.9507884774       48.6889782107      -13.3747800000  MEMB      199             0.0000000000
     22466       199  CHL1      C1             29.0444595437       48.3432384614      -15.1288500000  MEMB      199             0.0000000000
     22467       199  CHL1      H1A            29.3981132930       49.2557462206      -14.6029400000  MEMB      199             0.0000000000
     22468       199  CHL1      H1B            29.9082259847       47.6468117890      -15.0720600000  MEMB      199             0.0000000000
     22469       199  CHL1      C2             28.7338485217       48.7210415020      -16.6348300000  MEMB      199             0.0000000000
     22470       199  CHL1      H2A            29.6483501854       49.0932143108      -17.1442400000  MEMB      199             0.0000000000
     22471       199  CHL1      H2B            27.9529672072       49.5008018759      -16.7632700000  MEMB      199             0.0000000000
     22472       199  CHL1      C20            28.2522499950       46.8928475375       -7.2930800000  MEMB      199             0.0000000000
     22473       199  CHL1      H20            27.1754683523       47.0974519590       -7.1114100000  MEMB      199             0.0000000000
     22474       199  CHL1      C21            29.1997502707       48.1106334171       -7.2244900000  MEMB      199             0.0000000000
     22475       199  CHL1      H21A           29.3531064124       48.3748448177       -6.1563100000  MEMB      199             0.0000000000
     22476       199  CHL1      H21B           28.8811282645       49.0827636808       -7.6578200000  MEMB      199             0.0000000000
     22477       199  CHL1      H21C           30.2401559198       47.9219782022       -7.5654800000  MEMB      199             0.0000000000
     22478       199  CHL1      C22            28.7675764523       45.8734526999       -6.2386500000  MEMB      199             0.0000000000
     22479       199  CHL1      H22A           28.2456903424       44.9128254710       -6.4365300000  MEMB      199             0.0000000000
     22480       199  CHL1      H22B           29.8547611424       45.7993968403       -6.4551200000  MEMB      199             0.0000000000
     22481       199  CHL1      C23            28.5229636718       46.2462154028       -4.7307700000  MEMB      199             0.0000000000
     22482       199  CHL1      H23A           29.1703150443       47.1184068150       -4.4972400000  MEMB      199             0.0000000000
     22483       199  CHL1      H23B           27.4587830458       46.4442879885       -4.4805400000  MEMB      199             0.0000000000
     22484       199  CHL1      C24            28.9866647996       45.2694831290       -3.7174500000  MEMB      199             0.0000000000
     22485       199  CHL1      H24A           30.0829401674       45.1487042763       -3.5835700000  MEMB      199             0.0000000000
     22486       199  CHL1      H24B           28.5164134310       45.5576278592       -2.7530000000  MEMB      199             0.0000000000
     22487       199  CHL1      C25            28.4832008046       43.8623060791       -3.9699500000  MEMB      199             0.0000000000
     22488       199  CHL1      H25            28.9658993946       43.5914798558       -4.9332700000  MEMB      199             0.0000000000
     22489       199  CHL1      C26            28.9407005605       42.8800134558       -2.9125300000  MEMB      199             0.0000000000
     22490       199  CHL1      H26A           28.2851277646       42.9770375544       -2.0208300000  MEMB      199             0.0000000000
     22491       199  CHL1      H26B           28.8398206463       41.8143241837       -3.2099400000  MEMB      199             0.0000000000
     22492       199  CHL1      H26C           29.9796661394       43.2125489500       -2.7021000000  MEMB      199             0.0000000000
     22493       199  CHL1      C27            26.9307912228       43.7377121353       -4.0834100000  MEMB      199             0.0000000000
     22494       199  CHL1      H27A           26.6413515481       42.6913369001       -4.3193100000  MEMB      199             0.0000000000
     22495       199  CHL1      H27B           26.5271148787       44.0176371690       -3.0869100000  MEMB      199             0.0000000000
     22496       199  CHL1      H27C           26.6094346320       44.5000328324       -4.8249700000  MEMB      199             0.0000000000
     22497       200  CHL1      C3             20.8780527797      -48.3518655941      -17.3399800000  MEMB      200             0.0000000000
     22498       200  CHL1      H3             21.4620215759      -49.2926501717      -17.2494100000  MEMB      200             0.0000000000
     22499       200  CHL1      O3             20.5610622203      -48.2199124059      -18.6600200000  MEMB      200             0.0000000000
     22500       200  CHL1      H3'            21.0802968946      -47.4885598092      -19.0022400000  MEMB      200             0.0000000000
     22501       200  CHL1      C4             19.5228048955      -48.2812297614      -16.5738900000  MEMB      200             0.0000000000
     22502       200  CHL1      H4A            19.0883896888      -47.3120298491      -16.8998500000  MEMB      200             0.0000000000
     22503       200  CHL1      H4B            18.9045296731      -49.0976713369      -17.0045600000  MEMB      200             0.0000000000
     22504       200  CHL1      C5             19.6840323763      -48.3089883607      -15.0624300000  MEMB      200             0.0000000000
     22505       200  CHL1      C6             18.9443922875      -49.2039500101      -14.3777200000  MEMB      200             0.0000000000
     22506       200  CHL1      H6             18.2768497855      -49.8812542763      -14.9305700000  MEMB      200             0.0000000000
     22507       200  CHL1      C7             19.0223258367      -49.4103502155      -12.8922900000  MEMB      200             0.0000000000
     22508       200  CHL1      H7A            18.0198092018      -49.2706960186      -12.4342700000  MEMB      200             0.0000000000
     22509       200  CHL1      H7B            19.4614655437      -50.4223181614      -12.7604400000  MEMB      200             0.0000000000
     22510       200  CHL1      C8             19.9544969070      -48.3021619309      -12.2184400000  MEMB      200             0.0000000000
     22511       200  CHL1      H8             19.2310198265      -47.4613127065      -12.1562200000  MEMB      200             0.0000000000
     22512       200  CHL1      C14            20.3639206062      -48.7359712981      -10.7880700000  MEMB      200             0.0000000000
     22513       200  CHL1      H14            21.1200284637      -49.5493685117      -10.8199300000  MEMB      200             0.0000000000
     22514       200  CHL1      C15            19.2479600193      -49.1250005710       -9.9310300000  MEMB      200             0.0000000000
     22515       200  CHL1      H15A           18.4346664634      -48.3717248743      -10.0049000000  MEMB      200             0.0000000000
     22516       200  CHL1      H15B           18.9019799534      -50.1733874338      -10.0555700000  MEMB      200             0.0000000000
     22517       200  CHL1      C16            19.8223263590      -49.0125402780       -8.4940100000  MEMB      200             0.0000000000
     22518       200  CHL1      H16A           19.1936183972      -48.3875499111       -7.8243600000  MEMB      200             0.0000000000
     22519       200  CHL1      H16B           19.9735394361      -49.9303923296       -7.8865700000  MEMB      200             0.0000000000
     22520       200  CHL1      C17            21.2331079991      -48.2979407273       -8.7365800000  MEMB      200             0.0000000000
     22521       200  CHL1      H17            21.9355952468      -49.1141648137       -9.0097400000  MEMB      200             0.0000000000
     22522       200  CHL1      C13            21.0623025354      -47.5599086112      -10.0070100000  MEMB      200             0.0000000000
     22523       200  CHL1      C18            20.2250933935      -46.3088077908       -9.9132300000  MEMB      200             0.0000000000
     22524       200  CHL1      H18A           19.2924225655      -46.4678029539       -9.3308600000  MEMB      200             0.0000000000
     22525       200  CHL1      H18B           20.8501784854      -45.5217631705       -9.4397900000  MEMB      200             0.0000000000
     22526       200  CHL1      H18C           19.9400976904      -45.8252002932      -10.8720000000  MEMB      200             0.0000000000
     22527       200  CHL1      C12            22.3949663683      -47.3771560710      -10.8011000000  MEMB      200             0.0000000000
     22528       200  CHL1      H12A           22.9430657804      -46.5466602239      -10.3069600000  MEMB      200             0.0000000000
     22529       200  CHL1      H12B           23.0494601649      -48.2743692231      -10.7698900000  MEMB      200             0.0000000000
     22530       200  CHL1      C11            22.1407652161      -47.0547428430      -12.2798700000  MEMB      200             0.0000000000
     22531       200  CHL1      H11A           21.5919235891      -46.0894008230      -12.3146600000  MEMB      200             0.0000000000
     22532       200  CHL1      H11B           23.1124775370      -46.9567630373      -12.8094900000  MEMB      200             0.0000000000
     22533       200  CHL1      C9             21.1500740784      -47.9644354286      -13.0489500000  MEMB      200             0.0000000000
     22534       200  CHL1      H9             21.6869059923      -48.9275482579      -13.1851900000  MEMB      200             0.0000000000
     22535       200  CHL1      C10            20.7782344219      -47.4139816847      -14.4926300000  MEMB      200             0.0000000000
     22536       200  CHL1      C19            20.1612052118      -46.0360898731      -14.4544300000  MEMB      200             0.0000000000
     22537       200  CHL1      H19A           20.9478743264      -45.2639364173      -14.3157300000  MEMB      200             0.0000000000
     22538       200  CHL1      H19B           19.6478302384      -45.8014128466      -15.4113500000  MEMB      200             0.0000000000
     22539       200  CHL1      H19C           19.3967580411      -46.0093219494      -13.6486900000  MEMB      200             0.0000000000
     22540       200  CHL1      C1             22.0664211224      -47.3119483906      -15.3255100000  MEMB      200             0.0000000000
     22541       200  CHL1      H1A            22.7621503921      -46.4696862855      -15.1233500000  MEMB      200             0.0000000000
     22542       200  CHL1      H1B            22.7237847212      -48.1972818948      -15.1899300000  MEMB      200             0.0000000000
     22543       200  CHL1      C2             21.8590276604      -47.2399839243      -16.8998000000  MEMB      200             0.0000000000
     22544       200  CHL1      H2A            22.8163055817      -47.4070177743      -17.4383600000  MEMB      200             0.0000000000
     22545       200  CHL1      H2B            21.4514059397      -46.2255135127      -17.0972800000  MEMB      200             0.0000000000
     22546       200  CHL1      C20            21.7709730389      -47.5289229626       -7.4167400000  MEMB      200             0.0000000000
     22547       200  CHL1      H20            21.0535454846      -46.6814740009       -7.3785000000  MEMB      200             0.0000000000
     22548       200  CHL1      C21            23.1117240558      -46.9210162505       -7.5983700000  MEMB      200             0.0000000000
     22549       200  CHL1      H21A           23.7679968597      -47.6744672043       -8.0841000000  MEMB      200             0.0000000000
     22550       200  CHL1      H21B           23.4560156927      -46.4957665197       -6.6314400000  MEMB      200             0.0000000000
     22551       200  CHL1      H21C           23.0794999872      -46.1158905972       -8.3632700000  MEMB      200             0.0000000000
     22552       200  CHL1      C22            21.7077919939      -48.2958401511       -6.0469800000  MEMB      200             0.0000000000
     22553       200  CHL1      H22A           21.1057979941      -49.2296026353       -6.0424300000  MEMB      200             0.0000000000
     22554       200  CHL1      H22B           22.7422105560      -48.6761157485       -5.9066400000  MEMB      200             0.0000000000
     22555       200  CHL1      C23            21.3977209762      -47.3049902145       -4.9122100000  MEMB      200             0.0000000000
     22556       200  CHL1      H23A           22.1270817107      -46.4848200985       -5.0844500000  MEMB      200             0.0000000000
     22557       200  CHL1      H23B           20.3425581710      -46.9594987224       -4.9519100000  MEMB      200             0.0000000000
     22558       200  CHL1      C24            21.5691001714      -47.8830399040       -3.5578400000  MEMB      200             0.0000000000
     22559       200  CHL1      H24A           20.7678320241      -48.5728162437       -3.2165500000  MEMB      200             0.0000000000
     22560       200  CHL1      H24B           22.5396905104      -48.4205051194       -3.4995600000  MEMB      200             0.0000000000
     22561       200  CHL1      C25            21.6765927501      -46.7856439098       -2.4333700000  MEMB      200             0.0000000000
     22562       200  CHL1      H25            22.4111866840      -46.0097904478       -2.7379100000  MEMB      200             0.0000000000
     22563       200  CHL1      C26            20.2558863500      -46.2097480450       -2.2812300000  MEMB      200             0.0000000000
     22564       200  CHL1      H26A           20.2275363907      -45.3814317152       -1.5413600000  MEMB      200             0.0000000000
     22565       200  CHL1      H26B           19.7925146646      -45.7981890551       -3.2033100000  MEMB      200             0.0000000000
     22566       200  CHL1      H26C           19.5024505624      -46.9491713622       -1.9349500000  MEMB      200             0.0000000000
     22567       200  CHL1      C27            22.1352223182      -47.5182716369       -1.1947600000  MEMB      200             0.0000000000
     22568       200  CHL1      H27A           22.9558004762      -48.2614723859       -1.2877000000  MEMB      200             0.0000000000
     22569       200  CHL1      H27B           22.4837699932      -46.8534476167       -0.3757100000  MEMB      200             0.0000000000
     22570       200  CHL1      H27C           21.2666557485      -47.9959469045       -0.6930300000  MEMB      200             0.0000000000
     22571       201  CHL1      C3            -28.0438585896       21.0457253169      -17.3272800000  MEMB      201             0.0000000000
     22572       201  CHL1      H3            -27.7520277963       22.0981238360      -17.1232900000  MEMB      201             0.0000000000
     22573       201  CHL1      O3            -28.0762466104       20.7268980831      -18.6727200000  MEMB      201             0.0000000000
     22574       201  CHL1      H3'           -28.6672282049       21.3895917658      -19.0376600000  MEMB      201             0.0000000000
     22575       201  CHL1      C4            -26.9366251418       20.1611472490      -16.6350600000  MEMB      201             0.0000000000
     22576       201  CHL1      H4A           -27.0608265787       19.1137769472      -16.9842200000  MEMB      201             0.0000000000
     22577       201  CHL1      H4B           -25.9520798566       20.5031179668      -17.0198200000  MEMB      201             0.0000000000
     22578       201  CHL1      C5            -27.0870269267       20.0906659884      -15.1156600000  MEMB      201             0.0000000000
     22579       201  CHL1      C6            -25.9679378625       20.3648862579      -14.4189300000  MEMB      201             0.0000000000
     22580       201  CHL1      H6            -24.9981682483       20.6016460141      -14.8809800000  MEMB      201             0.0000000000
     22581       201  CHL1      C7            -26.0080991732       20.3705134531      -12.9011300000  MEMB      201             0.0000000000
     22582       201  CHL1      H7A           -25.0788537084       19.9117479354      -12.5006700000  MEMB      201             0.0000000000
     22583       201  CHL1      H7B           -25.9973722738       21.4513547010      -12.6442300000  MEMB      201             0.0000000000
     22584       201  CHL1      C8            -27.1853953988       19.5819372724      -12.3179200000  MEMB      201             0.0000000000
     22585       201  CHL1      H8            -27.0057399034       18.4997039809      -12.4934600000  MEMB      201             0.0000000000
     22586       201  CHL1      C14           -27.3904057234       19.8904311337      -10.7949300000  MEMB      201             0.0000000000
     22587       201  CHL1      H14           -27.7035253015       20.9548904918      -10.7383500000  MEMB      201             0.0000000000
     22588       201  CHL1      C15           -26.2118042563       19.7393281775       -9.8326400000  MEMB      201             0.0000000000
     22589       201  CHL1      H15A          -25.6752001504       18.8519070990      -10.2312300000  MEMB      201             0.0000000000
     22590       201  CHL1      H15B          -25.4843906315       20.5784886359       -9.8642800000  MEMB      201             0.0000000000
     22591       201  CHL1      C16           -26.8873185907       19.6522175068       -8.3858300000  MEMB      201             0.0000000000
     22592       201  CHL1      H16A          -26.4463300360       18.7514372046       -7.9078600000  MEMB      201             0.0000000000
     22593       201  CHL1      H16B          -26.6684247004       20.5871455093       -7.8269800000  MEMB      201             0.0000000000
     22594       201  CHL1      C17           -28.3601245350       19.4890494524       -8.6378100000  MEMB      201             0.0000000000
     22595       201  CHL1      H17           -28.7007391215       20.5296676483       -8.4496300000  MEMB      201             0.0000000000
     22596       201  CHL1      C13           -28.6018889281       19.1359458823      -10.1972200000  MEMB      201             0.0000000000
     22597       201  CHL1      C18           -28.3808419566       17.6158831221      -10.3166700000  MEMB      201             0.0000000000
     22598       201  CHL1      H18A          -29.2537219994       17.1004024791       -9.8620300000  MEMB      201             0.0000000000
     22599       201  CHL1      H18B          -28.2225610907       17.2614912240      -11.3576600000  MEMB      201             0.0000000000
     22600       201  CHL1      H18C          -27.4453244963       17.3922714104       -9.7606700000  MEMB      201             0.0000000000
     22601       201  CHL1      C12           -29.8349757524       19.7363953200      -10.8485000000  MEMB      201             0.0000000000
     22602       201  CHL1      H12A          -30.8231888338       19.4477933212      -10.4308100000  MEMB      201             0.0000000000
     22603       201  CHL1      H12B          -29.6581659703       20.8115306612      -10.6314100000  MEMB      201             0.0000000000
     22604       201  CHL1      C11           -29.8375931025       19.5805218897      -12.3836900000  MEMB      201             0.0000000000
     22605       201  CHL1      H11A          -30.0348254205       18.5018429165      -12.5622600000  MEMB      201             0.0000000000
     22606       201  CHL1      H11B          -30.7734840022       19.9789810976      -12.8305100000  MEMB      201             0.0000000000
     22607       201  CHL1      C9            -28.4948200844       20.0590642294      -12.9867700000  MEMB      201             0.0000000000
     22608       201  CHL1      H9            -28.5070830730       21.1643767576      -12.8752300000  MEMB      201             0.0000000000
     22609       201  CHL1      C10           -28.4452164949       19.8450674341      -14.5465200000  MEMB      201             0.0000000000
     22610       201  CHL1      C19           -28.8167286179       18.4123716126      -14.9003400000  MEMB      201             0.0000000000
     22611       201  CHL1      H19A          -29.8657395470       18.2538717038      -14.5705300000  MEMB      201             0.0000000000
     22612       201  CHL1      H19B          -28.7157702610       18.2218407472      -15.9902200000  MEMB      201             0.0000000000
     22613       201  CHL1      H19C          -28.1114188181       17.7056556734      -14.4130900000  MEMB      201             0.0000000000
     22614       201  CHL1      C1            -29.4925651453       20.7605054151      -15.2346500000  MEMB      201             0.0000000000
     22615       201  CHL1      H1A           -30.5385670375       20.5283588452      -14.9408600000  MEMB      201             0.0000000000
     22616       201  CHL1      H1B           -29.2488915345       21.7621208073      -14.8202700000  MEMB      201             0.0000000000
     22617       201  CHL1      C2            -29.4584673680       20.8030280077      -16.8010800000  MEMB      201             0.0000000000
     22618       201  CHL1      H2A           -30.1269883555       21.5240286868      -17.3183400000  MEMB      201             0.0000000000
     22619       201  CHL1      H2B           -29.7414244888       19.8155980036      -17.2244500000  MEMB      201             0.0000000000
     22620       201  CHL1      C20           -29.0252049886       18.6335229813       -7.5677100000  MEMB      201             0.0000000000
     22621       201  CHL1      H20           -28.4740938684       17.6691252243       -7.5908400000  MEMB      201             0.0000000000
     22622       201  CHL1      C21           -30.4920993125       18.2970898187       -7.7159500000  MEMB      201             0.0000000000
     22623       201  CHL1      H21A          -31.2136941400       19.0935844546       -7.4345000000  MEMB      201             0.0000000000
     22624       201  CHL1      H21B          -30.7410867197       17.3732851582       -7.1512400000  MEMB      201             0.0000000000
     22625       201  CHL1      H21C          -30.7913971144       18.1444741407       -8.7749400000  MEMB      201             0.0000000000
     22626       201  CHL1      C22           -28.7069626794       19.0670520626       -6.0908400000  MEMB      201             0.0000000000
     22627       201  CHL1      H22A          -27.6118215015       19.1363763282       -5.9171000000  MEMB      201             0.0000000000
     22628       201  CHL1      H22B          -29.0005235416       20.1182077884       -5.8829400000  MEMB      201             0.0000000000
     22629       201  CHL1      C23           -29.3632229228       18.2959391378       -4.9398400000  MEMB      201             0.0000000000
     22630       201  CHL1      H23A          -30.3758103048       17.9047888286       -5.1764300000  MEMB      201             0.0000000000
     22631       201  CHL1      H23B          -28.7760818532       17.4053636813       -4.6292600000  MEMB      201             0.0000000000
     22632       201  CHL1      C24           -29.4205343294       19.1101583832       -3.6245100000  MEMB      201             0.0000000000
     22633       201  CHL1      H24A          -28.5086883280       19.7428079973       -3.5733000000  MEMB      201             0.0000000000
     22634       201  CHL1      H24B          -30.2168115578       19.8807136477       -3.7052900000  MEMB      201             0.0000000000
     22635       201  CHL1      C25           -29.3702767595       18.3668129855       -2.2501300000  MEMB      201             0.0000000000
     22636       201  CHL1      H25           -28.5715400679       17.6080765340       -2.3939400000  MEMB      201             0.0000000000
     22637       201  CHL1      C26           -28.9472552695       19.3132750204       -1.1104000000  MEMB      201             0.0000000000
     22638       201  CHL1      H26A          -29.7741291389       19.9664417123       -0.7583000000  MEMB      201             0.0000000000
     22639       201  CHL1      H26B          -28.5657348684       18.6720387130       -0.2872500000  MEMB      201             0.0000000000
     22640       201  CHL1      H26C          -28.0283720156       19.9149252977       -1.2777400000  MEMB      201             0.0000000000
     22641       201  CHL1      C27           -30.6367540645       17.6195609028       -1.8426900000  MEMB      201             0.0000000000
     22642       201  CHL1      H27A          -31.4326173860       18.3695945303       -1.6467800000  MEMB      201             0.0000000000
     22643       201  CHL1      H27B          -30.9499683734       16.9618881970       -2.6815500000  MEMB      201             0.0000000000
     22644       201  CHL1      H27C          -30.5416324679       16.9630131196       -0.9515000000  MEMB      201             0.0000000000
     22645       202  CHL1      C3             18.5843409961      -40.1847099656      -17.3403150000  MEMB      202             0.0000000000
     22646       202  CHL1      H3             19.2252797411      -39.2905913818      -17.1851950000  MEMB      202             0.0000000000
     22647       202  CHL1      O3             18.7400638039      -40.6814414344      -18.6596850000  MEMB      202             0.0000000000
     22648       202  CHL1      H3'            19.6096865444      -41.0873130609      -18.6847950000  MEMB      202             0.0000000000
     22649       202  CHL1      C4             19.2610015970      -41.2634414041      -16.4797850000  MEMB      202             0.0000000000
     22650       202  CHL1      H4A            18.6997958641      -42.1720343408      -16.7861150000  MEMB      202             0.0000000000
     22651       202  CHL1      H4B            20.2979684577      -41.2879444699      -16.8777850000  MEMB      202             0.0000000000
     22652       202  CHL1      C5             19.1934664941      -40.8098677864      -15.0381250000  MEMB      202             0.0000000000
     22653       202  CHL1      C6             20.3558229976      -40.5806022582      -14.4180750000  MEMB      202             0.0000000000
     22654       202  CHL1      H6             21.2944526655      -40.5956105147      -14.9914350000  MEMB      202             0.0000000000
     22655       202  CHL1      C7             20.3700531146      -40.3351798269      -12.9566750000  MEMB      202             0.0000000000
     22656       202  CHL1      H7A            21.1676814349      -40.9623355402      -12.5041450000  MEMB      202             0.0000000000
     22657       202  CHL1      H7B            20.5634065931      -39.2760431260      -12.6825550000  MEMB      202             0.0000000000
     22658       202  CHL1      C8             18.9441307708      -40.7428825763      -12.2632750000  MEMB      202             0.0000000000
     22659       202  CHL1      H8             18.8124021450      -41.8459770605      -12.2758550000  MEMB      202             0.0000000000
     22660       202  CHL1      C14            18.9340371034      -40.0181812972      -10.9133050000  MEMB      202             0.0000000000
     22661       202  CHL1      H14            18.9126449719      -38.9561711484      -11.2388550000  MEMB      202             0.0000000000
     22662       202  CHL1      C15            20.1688019538      -40.1174474913       -9.9639750000  MEMB      202             0.0000000000
     22663       202  CHL1      H15A           20.5362647114      -41.1651897279      -10.0032750000  MEMB      202             0.0000000000
     22664       202  CHL1      H15B           21.1064087923      -39.5389918765      -10.1075550000  MEMB      202             0.0000000000
     22665       202  CHL1      C16            19.5716543570      -39.7301342205       -8.5658650000  MEMB      202             0.0000000000
     22666       202  CHL1      H16A           19.6500528653      -40.6457370283       -7.9414850000  MEMB      202             0.0000000000
     22667       202  CHL1      H16B           20.1624816624      -38.8764281179       -8.1703650000  MEMB      202             0.0000000000
     22668       202  CHL1      C17            18.0576267372      -39.5349698708       -8.7319350000  MEMB      202             0.0000000000
     22669       202  CHL1      H17            17.8049158386      -38.4673300153       -8.9068650000  MEMB      202             0.0000000000
     22670       202  CHL1      C13            17.7221440908      -40.3092009829      -10.0399150000  MEMB      202             0.0000000000
     22671       202  CHL1      C18            17.7117746846      -41.8153897409       -9.7832350000  MEMB      202             0.0000000000
     22672       202  CHL1      H18A           17.3252010884      -42.4579706447      -10.6029750000  MEMB      202             0.0000000000
     22673       202  CHL1      H18B           18.7069946122      -42.0891444196       -9.3722550000  MEMB      202             0.0000000000
     22674       202  CHL1      H18C           17.0180030236      -42.1412480028       -8.9789850000  MEMB      202             0.0000000000
     22675       202  CHL1      C12            16.4158136430      -39.8133442134      -10.7908150000  MEMB      202             0.0000000000
     22676       202  CHL1      H12A           15.5446750797      -40.1735322828      -10.2028550000  MEMB      202             0.0000000000
     22677       202  CHL1      H12B           16.3958084068      -38.7025594255      -10.7999650000  MEMB      202             0.0000000000
     22678       202  CHL1      C11            16.4273400888      -40.3663431686      -12.2462150000  MEMB      202             0.0000000000
     22679       202  CHL1      H11A           16.2469207091      -41.4625867056      -12.2498650000  MEMB      202             0.0000000000
     22680       202  CHL1      H11B           15.5618142131      -39.9413336870      -12.7980850000  MEMB      202             0.0000000000
     22681       202  CHL1      C9             17.7811510431      -40.1722369304      -13.0410350000  MEMB      202             0.0000000000
     22682       202  CHL1      H9             17.8266186572      -39.0778024447      -13.2266850000  MEMB      202             0.0000000000
     22683       202  CHL1      C10            17.7856236602      -40.8044118333      -14.4845050000  MEMB      202             0.0000000000
     22684       202  CHL1      C19            17.3118848762      -42.2558117980      -14.4363050000  MEMB      202             0.0000000000
     22685       202  CHL1      H19A           18.0550605564      -42.9523892404      -13.9927050000  MEMB      202             0.0000000000
     22686       202  CHL1      H19B           16.2986827458      -42.3799259711      -13.9977450000  MEMB      202             0.0000000000
     22687       202  CHL1      H19C           17.2607443681      -42.6759003345      -15.4635450000  MEMB      202             0.0000000000
     22688       202  CHL1      C1             16.9073827905      -39.9272327824      -15.4284950000  MEMB      202             0.0000000000
     22689       202  CHL1      H1A            15.8751231695      -40.0307142012      -15.0309350000  MEMB      202             0.0000000000
     22690       202  CHL1      H1B            17.1788836780      -38.8661136163      -15.2424250000  MEMB      202             0.0000000000
     22691       202  CHL1      C2             17.0455124915      -40.0844792443      -16.9518950000  MEMB      202             0.0000000000
     22692       202  CHL1      H2A            16.6198222550      -39.1659191954      -17.4094650000  MEMB      202             0.0000000000
     22693       202  CHL1      H2B            16.5450995477      -40.9566836747      -17.4242950000  MEMB      202             0.0000000000
     22694       202  CHL1      C20            17.2703279229      -39.9229037254       -7.3979150000  MEMB      202             0.0000000000
     22695       202  CHL1      H20            17.3223053142      -40.9982720468       -7.1236650000  MEMB      202             0.0000000000
     22696       202  CHL1      C21            15.7601196846      -39.5501525360       -7.4232250000  MEMB      202             0.0000000000
     22697       202  CHL1      H21A           15.2823840507      -39.8318734637       -6.4605650000  MEMB      202             0.0000000000
     22698       202  CHL1      H21B           15.2940946655      -40.1078495107       -8.2635350000  MEMB      202             0.0000000000
     22699       202  CHL1      H21C           15.7207094966      -38.5005843541       -7.7854050000  MEMB      202             0.0000000000
     22700       202  CHL1      C22            17.9444960612      -39.2160348365       -6.1481150000  MEMB      202             0.0000000000
     22701       202  CHL1      H22A           19.0015239283      -39.5514441762       -6.0808850000  MEMB      202             0.0000000000
     22702       202  CHL1      H22B           17.9873797494      -38.1711336187       -6.5231650000  MEMB      202             0.0000000000
     22703       202  CHL1      C23            17.3638367844      -39.4451925620       -4.7654750000  MEMB      202             0.0000000000
     22704       202  CHL1      H23A           16.2876759653      -39.1720045252       -4.8051550000  MEMB      202             0.0000000000
     22705       202  CHL1      H23B           17.4983683434      -40.5032734688       -4.4545250000  MEMB      202             0.0000000000
     22706       202  CHL1      C24            17.9923131548      -38.5150051577       -3.6604350000  MEMB      202             0.0000000000
     22707       202  CHL1      H24A           17.5463113054      -37.5208692449       -3.8774650000  MEMB      202             0.0000000000
     22708       202  CHL1      H24B           17.5628608758      -38.8066854448       -2.6781850000  MEMB      202             0.0000000000
     22709       202  CHL1      C25            19.5443901936      -38.4507278802       -3.5064750000  MEMB      202             0.0000000000
     22710       202  CHL1      H25            19.9484030723      -38.4253283744       -4.5410950000  MEMB      202             0.0000000000
     22711       202  CHL1      C26            19.9698039869      -37.2317690181       -2.6800750000  MEMB      202             0.0000000000
     22712       202  CHL1      H26A           19.7217987817      -37.1843484118       -1.5981450000  MEMB      202             0.0000000000
     22713       202  CHL1      H26B           21.0807129764      -37.2183365268       -2.6850050000  MEMB      202             0.0000000000
     22714       202  CHL1      H26C           19.8700836372      -36.2500525841       -3.1905850000  MEMB      202             0.0000000000
     22715       202  CHL1      C27            20.3303967526      -39.5351088079       -2.7780550000  MEMB      202             0.0000000000
     22716       202  CHL1      H27A           20.1749431507      -40.4769042072       -3.3465350000  MEMB      202             0.0000000000
     22717       202  CHL1      H27B           21.3963606501      -39.2299264299       -2.8480350000  MEMB      202             0.0000000000
     22718       202  CHL1      H27C           19.8712184226      -39.7353269745       -1.7863950000  MEMB      202             0.0000000000
     22719       203  CHL1      C3             49.3897852978      -38.2572992766      -17.2883400000  MEMB      203             0.0000000000
     22720       203  CHL1      H3             50.4704144680      -38.5148746342      -17.2744600000  MEMB      203             0.0000000000
     22721       203  CHL1      O3             49.1177099022      -38.0961961234      -18.7116600000  MEMB      203             0.0000000000
     22722       203  CHL1      H3'            49.4862814112      -37.2581445219      -19.0005000000  MEMB      203             0.0000000000
     22723       203  CHL1      C4             48.6351425883      -39.4121356483      -16.6286600000  MEMB      203             0.0000000000
     22724       203  CHL1      H4A            47.5552573835      -39.3192411612      -16.8726500000  MEMB      203             0.0000000000
     22725       203  CHL1      H4B            48.9650887428      -40.3110002869      -17.1921300000  MEMB      203             0.0000000000
     22726       203  CHL1      C5             48.8411732896      -39.5812582069      -15.1017400000  MEMB      203             0.0000000000
     22727       203  CHL1      C6             49.2894351970      -40.7248704682      -14.5991500000  MEMB      203             0.0000000000
     22728       203  CHL1      H6             49.4584062804      -41.5154899946      -15.3450500000  MEMB      203             0.0000000000
     22729       203  CHL1      C7             49.6459708580      -41.0109867429      -13.2107400000  MEMB      203             0.0000000000
     22730       203  CHL1      H7A            49.2897428580      -42.0268451392      -12.9360600000  MEMB      203             0.0000000000
     22731       203  CHL1      H7B            50.7487979453      -40.8841986994      -13.1656600000  MEMB      203             0.0000000000
     22732       203  CHL1      C8             48.9562019562      -39.9258037007      -12.3158900000  MEMB      203             0.0000000000
     22733       203  CHL1      H8             47.8808147245      -40.1833801030      -12.4233100000  MEMB      203             0.0000000000
     22734       203  CHL1      C14            49.3947428369      -39.9426685887      -10.8263200000  MEMB      203             0.0000000000
     22735       203  CHL1      H14            50.4525909567      -39.6188411180      -10.9283700000  MEMB      203             0.0000000000
     22736       203  CHL1      C15            49.2568292318      -41.2869022951      -10.1257500000  MEMB      203             0.0000000000
     22737       203  CHL1      H15A           48.3504187519      -41.8367636075      -10.4580200000  MEMB      203             0.0000000000
     22738       203  CHL1      H15B           50.1655448094      -41.8843755607      -10.3529100000  MEMB      203             0.0000000000
     22739       203  CHL1      C16            49.1482895450      -40.9557030383       -8.6139400000  MEMB      203             0.0000000000
     22740       203  CHL1      H16A           48.1509048334      -41.1694401789       -8.1736600000  MEMB      203             0.0000000000
     22741       203  CHL1      H16B           49.9938813733      -41.4168993166       -8.0602200000  MEMB      203             0.0000000000
     22742       203  CHL1      C17            49.2320991117      -39.4424634396       -8.5615600000  MEMB      203             0.0000000000
     22743       203  CHL1      H17            50.3099673670      -39.1751691660       -8.5943700000  MEMB      203             0.0000000000
     22744       203  CHL1      C13            48.6816852009      -38.9081382755       -9.9344000000  MEMB      203             0.0000000000
     22745       203  CHL1      C18            47.1809814012      -39.1125309235       -9.9019800000  MEMB      203             0.0000000000
     22746       203  CHL1      H18A           46.8529262824      -40.1134927945       -9.5487400000  MEMB      203             0.0000000000
     22747       203  CHL1      H18B           46.6166876939      -38.3496905992       -9.3240800000  MEMB      203             0.0000000000
     22748       203  CHL1      H18C           46.8121987766      -38.9155639050      -10.9313100000  MEMB      203             0.0000000000
     22749       203  CHL1      C12            49.1450174269      -37.4564219765      -10.3988300000  MEMB      203             0.0000000000
     22750       203  CHL1      H12A           48.6515019785      -36.6598659695       -9.8019600000  MEMB      203             0.0000000000
     22751       203  CHL1      H12B           50.2346431711      -37.3525762987      -10.2084500000  MEMB      203             0.0000000000
     22752       203  CHL1      C11            48.7879026866      -37.3534244370      -11.8921500000  MEMB      203             0.0000000000
     22753       203  CHL1      H11A           47.6843824116      -37.2624339092      -11.8011200000  MEMB      203             0.0000000000
     22754       203  CHL1      H11B           49.1127487355      -36.3027761103      -12.0500500000  MEMB      203             0.0000000000
     22755       203  CHL1      C9             49.1370240040      -38.5023731600      -12.8475100000  MEMB      203             0.0000000000
     22756       203  CHL1      H9             50.2304449363      -38.3691217779      -12.9923700000  MEMB      203             0.0000000000
     22757       203  CHL1      C10            48.6410207818      -38.3922001486      -14.2870800000  MEMB      203             0.0000000000
     22758       203  CHL1      C19            47.0527878538      -38.1243567147      -14.2051000000  MEMB      203             0.0000000000
     22759       203  CHL1      H19A           46.5413712951      -38.7338933673      -13.4297100000  MEMB      203             0.0000000000
     22760       203  CHL1      H19B           46.7216142027      -37.0910014027      -13.9667300000  MEMB      203             0.0000000000
     22761       203  CHL1      H19C           46.5144177909      -38.4021484818      -15.1364000000  MEMB      203             0.0000000000
     22762       203  CHL1      C1             49.2717164800      -37.1670005612      -15.0212100000  MEMB      203             0.0000000000
     22763       203  CHL1      H1A            48.8337571661      -36.2286622872      -14.6186700000  MEMB      203             0.0000000000
     22764       203  CHL1      H1B            50.3780922207      -37.1489580513      -14.9215700000  MEMB      203             0.0000000000
     22765       203  CHL1      C2             49.0906228294      -36.9740082393      -16.5760500000  MEMB      203             0.0000000000
     22766       203  CHL1      H2A            49.8303585016      -36.2103896447      -16.8985300000  MEMB      203             0.0000000000
     22767       203  CHL1      H2B            48.0454845049      -36.7136106718      -16.8484400000  MEMB      203             0.0000000000
     22768       203  CHL1      C20            48.5873817696      -38.9806220671       -7.2005100000  MEMB      203             0.0000000000
     22769       203  CHL1      H20            47.5175450429      -39.2801960967       -7.2039400000  MEMB      203             0.0000000000
     22770       203  CHL1      C21            48.7180664515      -37.4924280843       -7.1457400000  MEMB      203             0.0000000000
     22771       203  CHL1      H21A           48.1321220286      -36.9164922905       -7.8935900000  MEMB      203             0.0000000000
     22772       203  CHL1      H21B           49.7692312996      -37.1495836139       -7.2545100000  MEMB      203             0.0000000000
     22773       203  CHL1      H21C           48.4295713206      -37.1740516134       -6.1211700000  MEMB      203             0.0000000000
     22774       203  CHL1      C22            49.2479248142      -39.7157199045       -5.9611400000  MEMB      203             0.0000000000
     22775       203  CHL1      H22A           49.2817344419      -40.8137514199       -6.1269800000  MEMB      203             0.0000000000
     22776       203  CHL1      H22B           50.3463805313      -39.5493419177       -5.9556700000  MEMB      203             0.0000000000
     22777       203  CHL1      C23            48.6757275039      -39.2640415825       -4.5480400000  MEMB      203             0.0000000000
     22778       203  CHL1      H23A           48.7368576456      -38.1707077026       -4.3603500000  MEMB      203             0.0000000000
     22779       203  CHL1      H23B           47.6016386713      -39.5394052095       -4.4786100000  MEMB      203             0.0000000000
     22780       203  CHL1      C24            49.4232781959      -39.9880830102       -3.4034900000  MEMB      203             0.0000000000
     22781       203  CHL1      H24A           49.2091543527      -41.0684894811       -3.5490600000  MEMB      203             0.0000000000
     22782       203  CHL1      H24B           50.5269871428      -39.8643687793       -3.4324000000  MEMB      203             0.0000000000
     22783       203  CHL1      C25            48.9386108828      -39.7069751511       -2.0123800000  MEMB      203             0.0000000000
     22784       203  CHL1      H25            49.0856312270      -38.6477099388       -1.7112700000  MEMB      203             0.0000000000
     22785       203  CHL1      C26            47.4482299368      -40.0133610360       -1.6824000000  MEMB      203             0.0000000000
     22786       203  CHL1      H26A           47.3059926146      -39.6671307989       -0.6363500000  MEMB      203             0.0000000000
     22787       203  CHL1      H26B           46.7891311116      -39.3024995500       -2.2251500000  MEMB      203             0.0000000000
     22788       203  CHL1      H26C           47.2187500200      -41.0794542403       -1.8947500000  MEMB      203             0.0000000000
     22789       203  CHL1      C27            49.8010352194      -40.4663113695       -1.0919200000  MEMB      203             0.0000000000
     22790       203  CHL1      H27A           49.7101473589      -41.5505004272       -1.3168900000  MEMB      203             0.0000000000
     22791       203  CHL1      H27B           50.8827515737      -40.2333626246       -1.1916700000  MEMB      203             0.0000000000
     22792       203  CHL1      H27C           49.5173943630      -40.1755451090       -0.0578400000  MEMB      203             0.0000000000
     22793       204  CHL1      C3            -10.3030558300      -47.2726907905      -17.5064950000  MEMB      204             0.0000000000
     22794       204  CHL1      H3             -9.5543843350      -46.5732855993      -17.9361750000  MEMB      204             0.0000000000
     22795       204  CHL1      O3            -10.6307449700      -48.3254492095      -18.4935050000  MEMB      204             0.0000000000
     22796       204  CHL1      H3'           -11.1402428783      -47.9325366677      -19.2059850000  MEMB      204             0.0000000000
     22797       204  CHL1      C4             -9.9603969898      -48.0601521954      -16.2245050000  MEMB      204             0.0000000000
     22798       204  CHL1      H4A           -10.7832768722      -48.7941529146      -16.0887650000  MEMB      204             0.0000000000
     22799       204  CHL1      H4B            -9.0564629064      -48.6684245566      -16.4418250000  MEMB      204             0.0000000000
     22800       204  CHL1      C5             -9.8911747574      -47.1208994074      -14.9913550000  MEMB      204             0.0000000000
     22801       204  CHL1      C6             -8.7603991450      -47.1070256577      -14.2743250000  MEMB      204             0.0000000000
     22802       204  CHL1      H6             -7.9426546991      -47.7926226721      -14.5412650000  MEMB      204             0.0000000000
     22803       204  CHL1      C7             -8.5081216464      -46.2583092736      -13.1397650000  MEMB      204             0.0000000000
     22804       204  CHL1      H7A            -8.0372168706      -46.9258240933      -12.3867750000  MEMB      204             0.0000000000
     22805       204  CHL1      H7B            -7.8391965343      -45.4141327529      -13.4122150000  MEMB      204             0.0000000000
     22806       204  CHL1      C8             -9.8670377469      -45.6991182173      -12.5551850000  MEMB      204             0.0000000000
     22807       204  CHL1      H8            -10.3754102576      -46.5686919694      -12.0864350000  MEMB      204             0.0000000000
     22808       204  CHL1      C14            -9.6000754650      -44.5472114574      -11.5456050000  MEMB      204             0.0000000000
     22809       204  CHL1      H14            -9.2644048510      -43.6876366759      -12.1642950000  MEMB      204             0.0000000000
     22810       204  CHL1      C15            -8.4536691681      -44.7024865354      -10.5479850000  MEMB      204             0.0000000000
     22811       204  CHL1      H15A           -8.5898092122      -45.7197591247      -10.1226050000  MEMB      204             0.0000000000
     22812       204  CHL1      H15B           -7.4821007976      -44.5671782615      -11.0695750000  MEMB      204             0.0000000000
     22813       204  CHL1      C16            -8.6765006273      -43.6147540977       -9.5968150000  MEMB      204             0.0000000000
     22814       204  CHL1      H16A           -8.7851330810      -44.2156562329       -8.6686750000  MEMB      204             0.0000000000
     22815       204  CHL1      H16B           -7.8234772448      -42.9106618522       -9.4923450000  MEMB      204             0.0000000000
     22816       204  CHL1      C17           -10.1369051272      -43.0818975075       -9.8464150000  MEMB      204             0.0000000000
     22817       204  CHL1      H17            -9.8721313387      -42.1688550785      -10.4213650000  MEMB      204             0.0000000000
     22818       204  CHL1      C13           -10.7974128009      -44.0876880910      -10.7773250000  MEMB      204             0.0000000000
     22819       204  CHL1      C18           -11.4342254324      -45.2594337998       -9.9619750000  MEMB      204             0.0000000000
     22820       204  CHL1      H18A          -10.6368068714      -45.7965696444       -9.4052650000  MEMB      204             0.0000000000
     22821       204  CHL1      H18B          -12.1528239575      -44.8281818819       -9.2326150000  MEMB      204             0.0000000000
     22822       204  CHL1      H18C          -11.9910542894      -46.0389919949      -10.5246050000  MEMB      204             0.0000000000
     22823       204  CHL1      C12           -11.7748324938      -43.5566074418      -11.8172250000  MEMB      204             0.0000000000
     22824       204  CHL1      H12A          -12.7062761547      -43.2628722469      -11.2876450000  MEMB      204             0.0000000000
     22825       204  CHL1      H12B          -11.2036042479      -42.7412231863      -12.3103350000  MEMB      204             0.0000000000
     22826       204  CHL1      C11           -12.1137886647      -44.5732786647      -12.9283550000  MEMB      204             0.0000000000
     22827       204  CHL1      H11A          -12.6663283165      -45.3804985738      -12.4016550000  MEMB      204             0.0000000000
     22828       204  CHL1      H11B          -12.7524937343      -44.1263438205      -13.7199450000  MEMB      204             0.0000000000
     22829       204  CHL1      C9            -10.8227679836      -45.1684607549      -13.6342550000  MEMB      204             0.0000000000
     22830       204  CHL1      H9            -10.1806297441      -44.3626306611      -14.0497250000  MEMB      204             0.0000000000
     22831       204  CHL1      C10           -11.1335115835      -46.2151037936      -14.6722350000  MEMB      204             0.0000000000
     22832       204  CHL1      C19           -12.3916855302      -47.0925786718      -14.2605150000  MEMB      204             0.0000000000
     22833       204  CHL1      H19A          -12.6923184237      -47.8100183319      -15.0537550000  MEMB      204             0.0000000000
     22834       204  CHL1      H19B          -12.2782001102      -47.6463462899      -13.3040650000  MEMB      204             0.0000000000
     22835       204  CHL1      H19C          -13.2737037681      -46.4289473709      -14.1341450000  MEMB      204             0.0000000000
     22836       204  CHL1      C1            -11.3501672892      -45.5726112909      -16.0911050000  MEMB      204             0.0000000000
     22837       204  CHL1      H1A           -12.2543641028      -44.9924827065      -15.8079250000  MEMB      204             0.0000000000
     22838       204  CHL1      H1B           -10.4915671966      -44.8996868157      -16.3015750000  MEMB      204             0.0000000000
     22839       204  CHL1      C2            -11.5366069102      -46.4958797017      -17.2347750000  MEMB      204             0.0000000000
     22840       204  CHL1      H2A           -11.8464270297      -45.9653365269      -18.1604350000  MEMB      204             0.0000000000
     22841       204  CHL1      H2B           -12.3731168711      -47.1980656137      -17.0310050000  MEMB      204             0.0000000000
     22842       204  CHL1      C20           -10.8163598831      -42.6952422782       -8.4826550000  MEMB      204             0.0000000000
     22843       204  CHL1      H20           -10.7875798003      -43.6283386134       -7.8802850000  MEMB      204             0.0000000000
     22844       204  CHL1      C21           -12.2061865761      -42.1474470006       -8.6133750000  MEMB      204             0.0000000000
     22845       204  CHL1      H21A          -12.1503476740      -41.1984650776       -9.1883850000  MEMB      204             0.0000000000
     22846       204  CHL1      H21B          -12.7325497983      -42.0282823366       -7.6422550000  MEMB      204             0.0000000000
     22847       204  CHL1      H21C          -12.8660023368      -42.8423549733       -9.1755550000  MEMB      204             0.0000000000
     22848       204  CHL1      C22            -9.9517453916      -41.6824630598       -7.6963050000  MEMB      204             0.0000000000
     22849       204  CHL1      H22A           -8.9466217519      -42.1305951356       -7.5438850000  MEMB      204             0.0000000000
     22850       204  CHL1      H22B           -9.8710615143      -40.7089775287       -8.2256050000  MEMB      204             0.0000000000
     22851       204  CHL1      C23           -10.3832582540      -41.3079285925       -6.2725150000  MEMB      204             0.0000000000
     22852       204  CHL1      H23A           -9.6855714509      -40.5392751254       -5.8766450000  MEMB      204             0.0000000000
     22853       204  CHL1      H23B          -11.3960839712      -40.8586019446       -6.3537650000  MEMB      204             0.0000000000
     22854       204  CHL1      C24           -10.5729843621      -42.5520423540       -5.3658750000  MEMB      204             0.0000000000
     22855       204  CHL1      H24A          -11.4102022325      -43.1818842589       -5.7356050000  MEMB      204             0.0000000000
     22856       204  CHL1      H24B           -9.7114323952      -43.2492623413       -5.4429450000  MEMB      204             0.0000000000
     22857       204  CHL1      C25           -10.8392174323      -42.1700813209       -3.8806850000  MEMB      204             0.0000000000
     22858       204  CHL1      H25           -11.6713841858      -41.4358207108       -3.8289750000  MEMB      204             0.0000000000
     22859       204  CHL1      C26           -11.3271928450      -43.4046547248       -3.1809050000  MEMB      204             0.0000000000
     22860       204  CHL1      H26A          -10.4237890231      -44.0067479823       -2.9449650000  MEMB      204             0.0000000000
     22861       204  CHL1      H26B          -11.9306114178      -43.0915838625       -2.3021650000  MEMB      204             0.0000000000
     22862       204  CHL1      H26C          -12.0100106489      -44.0158219278       -3.8090450000  MEMB      204             0.0000000000
     22863       204  CHL1      C27            -9.6771100186      -41.6700143966       -3.0597350000  MEMB      204             0.0000000000
     22864       204  CHL1      H27A           -8.7877730630      -42.3200516816       -3.2041250000  MEMB      204             0.0000000000
     22865       204  CHL1      H27B           -9.3691143368      -40.7211887993       -3.5488050000  MEMB      204             0.0000000000
     22866       204  CHL1      H27C           -9.9445063847      -41.6581902730       -1.9814550000  MEMB      204             0.0000000000
     22867       205  CHL1      C3            -25.4561396260       35.2262858186      -17.3227100000  MEMB      205             0.0000000000
     22868       205  CHL1      H3            -26.1983278907       36.0485648185      -17.2371100000  MEMB      205             0.0000000000
     22869       205  CHL1      O3            -25.2225031740       34.9135001814      -18.6772900000  MEMB      205             0.0000000000
     22870       205  CHL1      H3'           -25.0226886534       35.7237107544      -19.1518700000  MEMB      205             0.0000000000
     22871       205  CHL1      C4            -24.1200924768       35.6757972484      -16.7885600000  MEMB      205             0.0000000000
     22872       205  CHL1      H4A           -23.4282906575       34.8246155960      -16.9652200000  MEMB      205             0.0000000000
     22873       205  CHL1      H4B           -23.7163642356       36.4595015774      -17.4646800000  MEMB      205             0.0000000000
     22874       205  CHL1      C5            -24.0165348035       35.9150620969      -15.2910300000  MEMB      205             0.0000000000
     22875       205  CHL1      C6            -23.6311338058       37.0765330233      -14.8010600000  MEMB      205             0.0000000000
     22876       205  CHL1      H6            -23.2880617905       37.8687071498      -15.4827900000  MEMB      205             0.0000000000
     22877       205  CHL1      C7            -23.6797471902       37.4315808957      -13.3525900000  MEMB      205             0.0000000000
     22878       205  CHL1      H7A           -22.7747472538       38.0348193681      -13.1258900000  MEMB      205             0.0000000000
     22879       205  CHL1      H7B           -24.6650563226       37.9074581010      -13.1601800000  MEMB      205             0.0000000000
     22880       205  CHL1      C8            -23.6525122740       36.1438685533      -12.4932900000  MEMB      205             0.0000000000
     22881       205  CHL1      H8            -22.7196619384       35.5817166261      -12.7125800000  MEMB      205             0.0000000000
     22882       205  CHL1      C14           -23.6912795324       36.4175865996      -10.9379600000  MEMB      205             0.0000000000
     22883       205  CHL1      H14           -24.7257747340       36.7795309603      -10.7559400000  MEMB      205             0.0000000000
     22884       205  CHL1      C15           -22.7762706589       37.4824915465      -10.3007100000  MEMB      205             0.0000000000
     22885       205  CHL1      H15A          -21.6973896960       37.3189863045      -10.5095200000  MEMB      205             0.0000000000
     22886       205  CHL1      H15B          -22.8873163116       38.5755138785      -10.4659300000  MEMB      205             0.0000000000
     22887       205  CHL1      C16           -22.9162320657       37.2126191797       -8.7583800000  MEMB      205             0.0000000000
     22888       205  CHL1      H16A          -21.8691752607       37.1129941300       -8.4005100000  MEMB      205             0.0000000000
     22889       205  CHL1      H16B          -23.3288099255       38.1618954485       -8.3546800000  MEMB      205             0.0000000000
     22890       205  CHL1      C17           -23.8096494375       35.9287870861       -8.6558300000  MEMB      205             0.0000000000
     22891       205  CHL1      H17           -24.8261822985       36.3633042083       -8.5455600000  MEMB      205             0.0000000000
     22892       205  CHL1      C13           -23.6669700213       35.3141557789      -10.0495100000  MEMB      205             0.0000000000
     22893       205  CHL1      C18           -22.3985609602       34.5244936453      -10.3066300000  MEMB      205             0.0000000000
     22894       205  CHL1      H18A          -21.5680737721       35.2301191127      -10.0905100000  MEMB      205             0.0000000000
     22895       205  CHL1      H18B          -22.2295056586       33.6433826324       -9.6513600000  MEMB      205             0.0000000000
     22896       205  CHL1      H18C          -22.2522343159       34.1250768679      -11.3329800000  MEMB      205             0.0000000000
     22897       205  CHL1      C12           -24.9483567434       34.4702675538      -10.4274300000  MEMB      205             0.0000000000
     22898       205  CHL1      H12A          -25.0286862534       33.4914533972       -9.9080100000  MEMB      205             0.0000000000
     22899       205  CHL1      H12B          -25.8288959846       35.1102198248      -10.2051200000  MEMB      205             0.0000000000
     22900       205  CHL1      C11           -25.0719480880       34.0522512662      -11.9673100000  MEMB      205             0.0000000000
     22901       205  CHL1      H11A          -24.3781049396       33.2046429841      -12.1529800000  MEMB      205             0.0000000000
     22902       205  CHL1      H11B          -26.0654450496       33.5784640179      -12.1183700000  MEMB      205             0.0000000000
     22903       205  CHL1      C9            -24.7427210918       35.1941068808      -12.9793100000  MEMB      205             0.0000000000
     22904       205  CHL1      H9            -25.7304400177       35.7011826388      -13.0193500000  MEMB      205             0.0000000000
     22905       205  CHL1      C10           -24.5163891336       34.7417801710      -14.3661200000  MEMB      205             0.0000000000
     22906       205  CHL1      C19           -23.5157335896       33.5014363545      -14.4704400000  MEMB      205             0.0000000000
     22907       205  CHL1      H19A          -23.1481853131       33.2690436976      -15.4928000000  MEMB      205             0.0000000000
     22908       205  CHL1      H19B          -22.5497724497       33.7445599276      -13.9783800000  MEMB      205             0.0000000000
     22909       205  CHL1      H19C          -24.0009305860       32.5684369314      -14.1121100000  MEMB      205             0.0000000000
     22910       205  CHL1      C1            -25.9007065772       34.3381601954      -14.9490900000  MEMB      205             0.0000000000
     22911       205  CHL1      H1A           -26.2889284947       33.4838560993      -14.3542900000  MEMB      205             0.0000000000
     22912       205  CHL1      H1B           -26.5900416781       35.2063341579      -14.8755800000  MEMB      205             0.0000000000
     22913       205  CHL1      C2            -25.9322779535       34.0264096805      -16.5030500000  MEMB      205             0.0000000000
     22914       205  CHL1      H2A           -26.9835442636       33.8087713843      -16.7890400000  MEMB      205             0.0000000000
     22915       205  CHL1      H2B           -25.3479043518       33.1046087455      -16.7107000000  MEMB      205             0.0000000000
     22916       205  CHL1      C20           -23.4517039797       35.1551090520       -7.3313500000  MEMB      205             0.0000000000
     22917       205  CHL1      H20           -22.3954525597       34.8282184325       -7.4399500000  MEMB      205             0.0000000000
     22918       205  CHL1      C21           -24.3751622716       33.9485918135       -7.2040900000  MEMB      205             0.0000000000
     22919       205  CHL1      H21A          -25.4214883254       34.2436854095       -7.4330900000  MEMB      205             0.0000000000
     22920       205  CHL1      H21B          -24.3361041911       33.6219263119       -6.1429200000  MEMB      205             0.0000000000
     22921       205  CHL1      H21C          -23.9814284907       33.1870028295       -7.9106900000  MEMB      205             0.0000000000
     22922       205  CHL1      C22           -23.4864588580       36.0684251319       -6.0192000000  MEMB      205             0.0000000000
     22923       205  CHL1      H22A          -23.1292186619       35.5503879066       -5.1035900000  MEMB      205             0.0000000000
     22924       205  CHL1      H22B          -22.8005342257       36.9205279353       -6.2134700000  MEMB      205             0.0000000000
     22925       205  CHL1      C23           -24.9594390029       36.4801412453       -5.7717700000  MEMB      205             0.0000000000
     22926       205  CHL1      H23A          -25.4878416074       36.5897342667       -6.7429000000  MEMB      205             0.0000000000
     22927       205  CHL1      H23B          -25.3638823627       35.7473955849       -5.0411400000  MEMB      205             0.0000000000
     22928       205  CHL1      C24           -24.7481140473       37.7946178937       -5.0229800000  MEMB      205             0.0000000000
     22929       205  CHL1      H24A          -23.9122970607       37.7214820109       -4.2947100000  MEMB      205             0.0000000000
     22930       205  CHL1      H24B          -24.4561015276       38.5777774598       -5.7549000000  MEMB      205             0.0000000000
     22931       205  CHL1      C25           -26.1364820741       38.3361537509       -4.5074000000  MEMB      205             0.0000000000
     22932       205  CHL1      H25           -26.8581462137       37.8594018316       -5.2047100000  MEMB      205             0.0000000000
     22933       205  CHL1      C26           -26.3854258937       37.8736854407       -3.1301000000  MEMB      205             0.0000000000
     22934       205  CHL1      H26A          -26.0720098631       36.8088427367       -3.0831300000  MEMB      205             0.0000000000
     22935       205  CHL1      H26B          -25.7713534256       38.5209519070       -2.4680800000  MEMB      205             0.0000000000
     22936       205  CHL1      H26C          -27.4403996247       38.0554187041       -2.8329100000  MEMB      205             0.0000000000
     22937       205  CHL1      C27           -26.2555693822       39.9140551534       -4.6134200000  MEMB      205             0.0000000000
     22938       205  CHL1      H27A          -27.2713531468       40.2977702770       -4.3783700000  MEMB      205             0.0000000000
     22939       205  CHL1      H27B          -25.5259173751       40.2862522585       -3.8628200000  MEMB      205             0.0000000000
     22940       205  CHL1      H27C          -26.0872170716       40.4350153021       -5.5801500000  MEMB      205             0.0000000000
     22941       206  CHL1      C3            -16.3770142976      -32.5866167108      -17.3756850000  MEMB      206             0.0000000000
     22942       206  CHL1      H3            -17.4432939149      -32.8793799198      -17.4836350000  MEMB      206             0.0000000000
     22943       206  CHL1      O3            -15.8725059024      -32.2072422892      -18.6243150000  MEMB      206             0.0000000000
     22944       206  CHL1      H3'           -16.5881581091      -31.6927644224      -19.0047750000  MEMB      206             0.0000000000
     22945       206  CHL1      C4            -16.1855508164      -31.3442838163      -16.4414050000  MEMB      206             0.0000000000
     22946       206  CHL1      H4A           -15.1244527097      -31.0245853897      -16.5199450000  MEMB      206             0.0000000000
     22947       206  CHL1      H4B           -16.7835116317      -30.5344808065      -16.9115050000  MEMB      206             0.0000000000
     22948       206  CHL1      C5            -16.5584793295      -31.6040453504      -15.0146050000  MEMB      206             0.0000000000
     22949       206  CHL1      C6            -17.2465783414      -30.6985731087      -14.3613350000  MEMB      206             0.0000000000
     22950       206  CHL1      H6            -17.6820494495      -29.8995817382      -14.9793750000  MEMB      206             0.0000000000
     22951       206  CHL1      C7            -17.6474951349      -30.7751338941      -12.8691150000  MEMB      206             0.0000000000
     22952       206  CHL1      H7A           -17.7332178798      -29.7764032184      -12.3900350000  MEMB      206             0.0000000000
     22953       206  CHL1      H7B           -18.6368823745      -31.2805004173      -12.8621750000  MEMB      206             0.0000000000
     22954       206  CHL1      C8            -16.7403435396      -31.8336390378      -12.1224550000  MEMB      206             0.0000000000
     22955       206  CHL1      H8            -15.7650993302      -31.3381506773      -11.9282650000  MEMB      206             0.0000000000
     22956       206  CHL1      C14           -17.4546721116      -32.2071941290      -10.8386250000  MEMB      206             0.0000000000
     22957       206  CHL1      H14           -18.4598855634      -32.6397694335      -11.0303550000  MEMB      206             0.0000000000
     22958       206  CHL1      C15           -17.8082343961      -31.0517041708       -9.8337050000  MEMB      206             0.0000000000
     22959       206  CHL1      H15A          -16.9329913088      -30.3699260466       -9.7749750000  MEMB      206             0.0000000000
     22960       206  CHL1      H15B          -18.7031552811      -30.4664941394      -10.1353150000  MEMB      206             0.0000000000
     22961       206  CHL1      C16           -18.0355253487      -31.7374407832       -8.5728250000  MEMB      206             0.0000000000
     22962       206  CHL1      H16A          -17.4157729511      -31.2976156669       -7.7624150000  MEMB      206             0.0000000000
     22963       206  CHL1      H16B          -19.1096026381      -31.6560627537       -8.3006650000  MEMB      206             0.0000000000
     22964       206  CHL1      C17           -17.5764488088      -33.2354150792       -8.7302350000  MEMB      206             0.0000000000
     22965       206  CHL1      H17           -18.4522332797      -33.8767107454       -8.9669950000  MEMB      206             0.0000000000
     22966       206  CHL1      C13           -16.6661385502      -33.2153217327       -9.9823850000  MEMB      206             0.0000000000
     22967       206  CHL1      C18           -15.1779969244      -32.7350566017       -9.6076750000  MEMB      206             0.0000000000
     22968       206  CHL1      H18A          -14.6888616554      -33.5718273507       -9.0646450000  MEMB      206             0.0000000000
     22969       206  CHL1      H18B          -14.6515221012      -32.4915460953      -10.5552250000  MEMB      206             0.0000000000
     22970       206  CHL1      H18C          -15.3384153140      -31.8770287459       -8.9203750000  MEMB      206             0.0000000000
     22971       206  CHL1      C12           -16.6744779241      -34.5390201809      -10.8805050000  MEMB      206             0.0000000000
     22972       206  CHL1      H12A          -16.3004668134      -35.4325669496      -10.3364350000  MEMB      206             0.0000000000
     22973       206  CHL1      H12B          -17.7326536457      -34.8331486278      -11.0480550000  MEMB      206             0.0000000000
     22974       206  CHL1      C11           -16.0186695735      -34.2993638612      -12.2021150000  MEMB      206             0.0000000000
     22975       206  CHL1      H11A          -14.9141740687      -34.2954356964      -12.0820750000  MEMB      206             0.0000000000
     22976       206  CHL1      H11B          -16.2208129844      -35.1737482217      -12.8570250000  MEMB      206             0.0000000000
     22977       206  CHL1      C9            -16.6539877274      -33.1113273987      -12.9988250000  MEMB      206             0.0000000000
     22978       206  CHL1      H9            -17.6896194909      -33.4647000391      -13.1909550000  MEMB      206             0.0000000000
     22979       206  CHL1      C10           -15.9302812147      -32.8512271511      -14.3553350000  MEMB      206             0.0000000000
     22980       206  CHL1      C19           -14.4141213567      -32.6520859798      -14.0640750000  MEMB      206             0.0000000000
     22981       206  CHL1      H19A          -13.8666489533      -32.3636464515      -14.9867950000  MEMB      206             0.0000000000
     22982       206  CHL1      H19B          -14.2845942664      -31.8907865952      -13.2653550000  MEMB      206             0.0000000000
     22983       206  CHL1      H19C          -13.8972813160      -33.5499423623      -13.6627750000  MEMB      206             0.0000000000
     22984       206  CHL1      C1            -16.0705660433      -33.9702623622      -15.3829050000  MEMB      206             0.0000000000
     22985       206  CHL1      H1A           -15.5744897609      -34.9233042440      -15.1001650000  MEMB      206             0.0000000000
     22986       206  CHL1      H1B           -17.1280024268      -34.3003472408      -15.4677850000  MEMB      206             0.0000000000
     22987       206  CHL1      C2            -15.5824565655      -33.7716599706      -16.8448450000  MEMB      206             0.0000000000
     22988       206  CHL1      H2A           -15.8159459894      -34.6886413918      -17.4270350000  MEMB      206             0.0000000000
     22989       206  CHL1      H2B           -14.4937050817      -33.5505897181      -16.8372950000  MEMB      206             0.0000000000
     22990       206  CHL1      C20           -17.0573353257      -33.7431572099       -7.3775850000  MEMB      206             0.0000000000
     22991       206  CHL1      H20           -16.2500918695      -33.0158980130       -7.1456950000  MEMB      206             0.0000000000
     22992       206  CHL1      C21           -16.4387092670      -35.1175974557       -7.4109250000  MEMB      206             0.0000000000
     22993       206  CHL1      H21A          -16.0179438015      -35.5732554591       -6.4891550000  MEMB      206             0.0000000000
     22994       206  CHL1      H21B          -15.5682898778      -35.1329199494       -8.1011750000  MEMB      206             0.0000000000
     22995       206  CHL1      H21C          -17.1816949467      -35.7925032701       -7.8871550000  MEMB      206             0.0000000000
     22996       206  CHL1      C22           -18.1052309008      -33.5478205158       -6.2124050000  MEMB      206             0.0000000000
     22997       206  CHL1      H22A          -18.4801523512      -32.5117855325       -6.0696050000  MEMB      206             0.0000000000
     22998       206  CHL1      H22B          -18.9866741744      -34.1353719549       -6.5473250000  MEMB      206             0.0000000000
     22999       206  CHL1      C23           -17.5862325709      -33.9223960991       -4.7863750000  MEMB      206             0.0000000000
     23000       206  CHL1      H23A          -17.2579624114      -34.9635422034       -4.9926650000  MEMB      206             0.0000000000
     23001       206  CHL1      H23B          -16.6416270665      -33.3792749909       -4.5694050000  MEMB      206             0.0000000000
     23002       206  CHL1      C24           -18.5811930361      -33.7987162891       -3.6541150000  MEMB      206             0.0000000000
     23003       206  CHL1      H24A          -18.9394979205      -32.7492498601       -3.5865650000  MEMB      206             0.0000000000
     23004       206  CHL1      H24B          -19.5020749872      -34.3353276877       -3.9677250000  MEMB      206             0.0000000000
     23005       206  CHL1      C25           -18.1057915740      -34.1550425761       -2.2429550000  MEMB      206             0.0000000000
     23006       206  CHL1      H25           -17.6396057041      -35.1628434768       -2.2793450000  MEMB      206             0.0000000000
     23007       206  CHL1      C26           -17.1731026759      -33.0048408267       -1.7287250000  MEMB      206             0.0000000000
     23008       206  CHL1      H26A          -16.9462036954      -33.2618673422       -0.6719550000  MEMB      206             0.0000000000
     23009       206  CHL1      H26B          -16.1757770424      -32.8942197213       -2.2056050000  MEMB      206             0.0000000000
     23010       206  CHL1      H26C          -17.7418829583      -32.0522577178       -1.6703650000  MEMB      206             0.0000000000
     23011       206  CHL1      C27           -19.3247589644      -34.0123237091       -1.3468950000  MEMB      206             0.0000000000
     23012       206  CHL1      H27A          -20.1287339077      -34.7761843763       -1.4136450000  MEMB      206             0.0000000000
     23013       206  CHL1      H27B          -19.0820531949      -34.0328915950       -0.2629250000  MEMB      206             0.0000000000
     23014       206  CHL1      H27C          -19.7670089061      -33.0048251982       -1.5008450000  MEMB      206             0.0000000000
     23015       207  CHL1      C3              2.4568509292      -37.1720050850      -17.3864750000  MEMB      207             0.0000000000
     23016       207  CHL1      H3              3.4827730364      -36.8158767140      -17.6209350000  MEMB      207             0.0000000000
     23017       207  CHL1      O3              1.8225877908      -37.2125023150      -18.6135250000  MEMB      207             0.0000000000
     23018       207  CHL1      H3'             2.2316085890      -37.8980576480      -19.1467450000  MEMB      207             0.0000000000
     23019       207  CHL1      C4              2.5187618247      -38.5497229278      -16.7802550000  MEMB      207             0.0000000000
     23020       207  CHL1      H4A             1.4828876659      -38.9472093061      -16.7229550000  MEMB      207             0.0000000000
     23021       207  CHL1      H4B             3.0931477210      -39.1899176200      -17.4834850000  MEMB      207             0.0000000000
     23022       207  CHL1      C5              3.0810192241      -38.6445889113      -15.4117350000  MEMB      207             0.0000000000
     23023       207  CHL1      C6              4.1638000518      -39.3806057462      -15.2033050000  MEMB      207             0.0000000000
     23024       207  CHL1      H6              4.6672245292      -39.9859880866      -15.9714750000  MEMB      207             0.0000000000
     23025       207  CHL1      C7              4.9297114873      -39.3328098267      -13.9051950000  MEMB      207             0.0000000000
     23026       207  CHL1      H7A             5.2627820064      -40.2928976999      -13.4561750000  MEMB      207             0.0000000000
     23027       207  CHL1      H7B             5.8299552716      -38.6843069861      -13.9628350000  MEMB      207             0.0000000000
     23028       207  CHL1      C8              4.0104384855      -38.7662748448      -12.7126150000  MEMB      207             0.0000000000
     23029       207  CHL1      H8              3.2904602781      -39.5569844090      -12.4113650000  MEMB      207             0.0000000000
     23030       207  CHL1      C14             4.9790927651      -38.4722991691      -11.5305150000  MEMB      207             0.0000000000
     23031       207  CHL1      H14             5.5633869002      -37.5799015217      -11.8412450000  MEMB      207             0.0000000000
     23032       207  CHL1      C15             5.9271617705      -39.4998512127      -11.0264050000  MEMB      207             0.0000000000
     23033       207  CHL1      H15A            5.5151442472      -40.5185204956      -10.8624450000  MEMB      207             0.0000000000
     23034       207  CHL1      H15B            6.7310924108      -39.6947708309      -11.7680450000  MEMB      207             0.0000000000
     23035       207  CHL1      C16             6.4200819626      -38.9461121399       -9.6300550000  MEMB      207             0.0000000000
     23036       207  CHL1      H16A            6.3824611160      -39.6557853156       -8.7760750000  MEMB      207             0.0000000000
     23037       207  CHL1      H16B            7.4362383971      -38.5108625010       -9.7409650000  MEMB      207             0.0000000000
     23038       207  CHL1      C17             5.3351007506      -37.8553041584       -9.3519250000  MEMB      207             0.0000000000
     23039       207  CHL1      H17             5.7702230337      -36.8438191206       -9.4998850000  MEMB      207             0.0000000000
     23040       207  CHL1      C13             4.1609688175      -38.0377525579      -10.3349750000  MEMB      207             0.0000000000
     23041       207  CHL1      C18             3.2359480811      -39.0565319129       -9.7131150000  MEMB      207             0.0000000000
     23042       207  CHL1      H18A            2.6208127511      -38.5164640910       -8.9619450000  MEMB      207             0.0000000000
     23043       207  CHL1      H18B            2.5640960041      -39.3759639609      -10.5382750000  MEMB      207             0.0000000000
     23044       207  CHL1      H18C            3.8860365598      -39.8078611520       -9.2159250000  MEMB      207             0.0000000000
     23045       207  CHL1      C12             3.5247849566      -36.6771716851      -10.6243550000  MEMB      207             0.0000000000
     23046       207  CHL1      H12A            3.0148263312      -36.3520452509       -9.6923950000  MEMB      207             0.0000000000
     23047       207  CHL1      H12B            4.3336135762      -35.9690900884      -10.9049650000  MEMB      207             0.0000000000
     23048       207  CHL1      C11             2.5811464954      -36.7489120168      -11.8584250000  MEMB      207             0.0000000000
     23049       207  CHL1      H11A            1.7209312858      -37.4302567911      -11.6848950000  MEMB      207             0.0000000000
     23050       207  CHL1      H11B            2.3662371553      -35.7062316452      -12.1761750000  MEMB      207             0.0000000000
     23051       207  CHL1      C9              3.3357456298      -37.5005334106      -13.1061850000  MEMB      207             0.0000000000
     23052       207  CHL1      H9              4.1477844407      -36.8046655959      -13.4073050000  MEMB      207             0.0000000000
     23053       207  CHL1      C10             2.4868642913      -37.6817396974      -14.3831350000  MEMB      207             0.0000000000
     23054       207  CHL1      C19             1.1891824313      -38.3836778462      -13.9243450000  MEMB      207             0.0000000000
     23055       207  CHL1      H19A            0.5885705740      -38.8277884552      -14.7467450000  MEMB      207             0.0000000000
     23056       207  CHL1      H19B            1.2573695489      -39.2173787797      -13.1931750000  MEMB      207             0.0000000000
     23057       207  CHL1      H19C            0.5664118060      -37.6494225459      -13.3699550000  MEMB      207             0.0000000000
     23058       207  CHL1      C1              2.2812216202      -36.2568537033      -15.0829550000  MEMB      207             0.0000000000
     23059       207  CHL1      H1A             1.5367973699      -35.7607431708      -14.4241550000  MEMB      207             0.0000000000
     23060       207  CHL1      H1B             3.2050664677      -35.6452402368      -15.0007550000  MEMB      207             0.0000000000
     23061       207  CHL1      C2              1.6485544253      -36.2797383394      -16.4780750000  MEMB      207             0.0000000000
     23062       207  CHL1      H2A             1.6365000818      -35.2418971876      -16.8743950000  MEMB      207             0.0000000000
     23063       207  CHL1      H2B             0.6101627285      -36.6358238626      -16.3069450000  MEMB      207             0.0000000000
     23064       207  CHL1      C20             4.9805739852      -37.8339018034       -7.7434550000  MEMB      207             0.0000000000
     23065       207  CHL1      H20             4.5311097419      -38.8244396224       -7.5173150000  MEMB      207             0.0000000000
     23066       207  CHL1      C21             3.9778438129      -36.7182522403       -7.3947750000  MEMB      207             0.0000000000
     23067       207  CHL1      H21A            2.9744924052      -37.0094027072       -7.7726950000  MEMB      207             0.0000000000
     23068       207  CHL1      H21B            4.2568985539      -35.7320659304       -7.8236050000  MEMB      207             0.0000000000
     23069       207  CHL1      H21C            3.9180411806      -36.5867373576       -6.2932150000  MEMB      207             0.0000000000
     23070       207  CHL1      C22             6.2718931943      -37.6772649041       -6.8545350000  MEMB      207             0.0000000000
     23071       207  CHL1      H22A            7.0660030248      -38.2682906710       -7.3589250000  MEMB      207             0.0000000000
     23072       207  CHL1      H22B            6.5768635447      -36.6093330910       -6.8832150000  MEMB      207             0.0000000000
     23073       207  CHL1      C23             6.0900379179      -38.0278468845       -5.3278950000  MEMB      207             0.0000000000
     23074       207  CHL1      H23A            5.7436458915      -37.0631106629       -4.8993750000  MEMB      207             0.0000000000
     23075       207  CHL1      H23B            5.3236802390      -38.7821082277       -5.0484250000  MEMB      207             0.0000000000
     23076       207  CHL1      C24             7.3785697128      -38.4708563347       -4.6426150000  MEMB      207             0.0000000000
     23077       207  CHL1      H24A            7.7274302485      -39.4063938703       -5.1298450000  MEMB      207             0.0000000000
     23078       207  CHL1      H24B            8.1390094072      -37.6659024431       -4.7326450000  MEMB      207             0.0000000000
     23079       207  CHL1      C25             7.1591226708      -38.8565483942       -3.1393250000  MEMB      207             0.0000000000
     23080       207  CHL1      H25             6.0763203647      -38.7530037537       -2.9132050000  MEMB      207             0.0000000000
     23081       207  CHL1      C26             7.6462161125      -40.3173243617       -2.7480850000  MEMB      207             0.0000000000
     23082       207  CHL1      H26A            8.6889817610      -40.3285628460       -3.1312750000  MEMB      207             0.0000000000
     23083       207  CHL1      H26B            7.7096475828      -40.4859095092       -1.6517850000  MEMB      207             0.0000000000
     23084       207  CHL1      H26C            7.1603999747      -41.1665597194       -3.2745150000  MEMB      207             0.0000000000
     23085       207  CHL1      C27             7.9338810510      -37.8613434071       -2.2860850000  MEMB      207             0.0000000000
     23086       207  CHL1      H27A            7.8207414603      -38.2948049087       -1.2694050000  MEMB      207             0.0000000000
     23087       207  CHL1      H27B            9.0243789433      -37.8108403421       -2.4924550000  MEMB      207             0.0000000000
     23088       207  CHL1      H27C            7.4337409826      -36.8700756257       -2.3258850000  MEMB      207             0.0000000000
     23089       208  CHL1      C3            -41.3291509537       38.0886880184      -17.3258900000  MEMB      208             0.0000000000
     23090       208  CHL1      H3            -40.9687844701       37.0516098088      -17.1558100000  MEMB      208             0.0000000000
     23091       208  CHL1      O3            -41.4063308463       38.1693965816      -18.6741100000  MEMB      208             0.0000000000
     23092       208  CHL1      H3'           -42.0791225295       37.5148017773      -18.8752900000  MEMB      208             0.0000000000
     23093       208  CHL1      C4            -42.7100198146       38.3570834356      -16.7637100000  MEMB      208             0.0000000000
     23094       208  CHL1      H4A           -43.0939434623       39.2869479440      -17.2351900000  MEMB      208             0.0000000000
     23095       208  CHL1      H4B           -43.3482258425       37.5073376708      -17.0876900000  MEMB      208             0.0000000000
     23096       208  CHL1      C5            -42.6228534394       38.4540378993      -15.2574400000  MEMB      208             0.0000000000
     23097       208  CHL1      C6            -43.4676695385       37.6374750832      -14.5712400000  MEMB      208             0.0000000000
     23098       208  CHL1      H6            -44.1755436699       36.9740173433      -15.0896300000  MEMB      208             0.0000000000
     23099       208  CHL1      C7            -43.3766328493       37.5549002702      -13.0643500000  MEMB      208             0.0000000000
     23100       208  CHL1      H7A           -44.3927200782       37.4224958674      -12.6350000000  MEMB      208             0.0000000000
     23101       208  CHL1      H7B           -42.6279720611       36.7607677494      -12.8565700000  MEMB      208             0.0000000000
     23102       208  CHL1      C8            -42.8728170219       38.9203750714      -12.4147600000  MEMB      208             0.0000000000
     23103       208  CHL1      H8            -43.6109956759       39.7444406736      -12.5163600000  MEMB      208             0.0000000000
     23104       208  CHL1      C14           -42.5506029940       38.7801414469      -10.8907000000  MEMB      208             0.0000000000
     23105       208  CHL1      H14           -41.7947806097       37.9670165475      -10.8473000000  MEMB      208             0.0000000000
     23106       208  CHL1      C15           -43.6910442606       38.2579023749       -9.9645200000  MEMB      208             0.0000000000
     23107       208  CHL1      H15A          -44.6310944530       38.8371816741      -10.0871800000  MEMB      208             0.0000000000
     23108       208  CHL1      H15B          -43.8094785097       37.1664833803      -10.1351600000  MEMB      208             0.0000000000
     23109       208  CHL1      C16           -43.0185885081       38.5790851795       -8.5867500000  MEMB      208             0.0000000000
     23110       208  CHL1      H16A          -43.8216922983       39.1273379445       -8.0493800000  MEMB      208             0.0000000000
     23111       208  CHL1      H16B          -42.8621631991       37.6355747965       -8.0213800000  MEMB      208             0.0000000000
     23112       208  CHL1      C17           -41.7654546355       39.4422721125       -8.7838100000  MEMB      208             0.0000000000
     23113       208  CHL1      H17           -40.8754094069       38.7884688534       -8.6627100000  MEMB      208             0.0000000000
     23114       208  CHL1      C13           -41.9368647140       40.0095883413      -10.1732500000  MEMB      208             0.0000000000
     23115       208  CHL1      C18           -42.8548954536       41.1985555172      -10.1769800000  MEMB      208             0.0000000000
     23116       208  CHL1      H18A          -43.1975170153       41.3209874264      -11.2267200000  MEMB      208             0.0000000000
     23117       208  CHL1      H18B          -43.7051326795       41.0952061553       -9.4693500000  MEMB      208             0.0000000000
     23118       208  CHL1      H18C          -42.2625659329       42.0974927029       -9.9024500000  MEMB      208             0.0000000000
     23119       208  CHL1      C12           -40.6597937847       40.3595837609      -10.9996700000  MEMB      208             0.0000000000
     23120       208  CHL1      H12A          -40.2573818978       41.2873378172      -10.5396000000  MEMB      208             0.0000000000
     23121       208  CHL1      H12B          -39.9516127200       39.5308792863      -10.7850800000  MEMB      208             0.0000000000
     23122       208  CHL1      C11           -40.8272287503       40.4752361002      -12.5159600000  MEMB      208             0.0000000000
     23123       208  CHL1      H11A          -41.3504332470       41.4542693272      -12.5614900000  MEMB      208             0.0000000000
     23124       208  CHL1      H11B          -39.8057880949       40.5645573830      -12.9437400000  MEMB      208             0.0000000000
     23125       208  CHL1      C9            -41.5514345840       39.2810964738      -13.1613500000  MEMB      208             0.0000000000
     23126       208  CHL1      H9            -40.8462771619       38.4544596757      -12.9295600000  MEMB      208             0.0000000000
     23127       208  CHL1      C10           -41.6139436819       39.4280927485      -14.7054800000  MEMB      208             0.0000000000
     23128       208  CHL1      C19           -42.1325846885       40.8728326731      -15.0508700000  MEMB      208             0.0000000000
     23129       208  CHL1      H19A          -43.0415773768       41.1496610182      -14.4751700000  MEMB      208             0.0000000000
     23130       208  CHL1      H19B          -41.3727103571       41.6809341356      -14.9884500000  MEMB      208             0.0000000000
     23131       208  CHL1      H19C          -42.3607207390       40.9229798493      -16.1370400000  MEMB      208             0.0000000000
     23132       208  CHL1      C1            -40.2351009055       39.1135117417      -15.3796300000  MEMB      208             0.0000000000
     23133       208  CHL1      H1A           -39.4457691450       39.8061897942      -15.0170300000  MEMB      208             0.0000000000
     23134       208  CHL1      H1B           -39.8762415657       38.1214941782      -15.0311600000  MEMB      208             0.0000000000
     23135       208  CHL1      C2            -40.3203721059       39.1445113558      -16.9341800000  MEMB      208             0.0000000000
     23136       208  CHL1      H2A           -39.3226470648       38.9567478728      -17.3854100000  MEMB      208             0.0000000000
     23137       208  CHL1      H2B           -40.7281805065       40.1438324015      -17.1975700000  MEMB      208             0.0000000000
     23138       208  CHL1      C20           -41.4972251089       40.4349911247       -7.5644900000  MEMB      208             0.0000000000
     23139       208  CHL1      H20           -42.3804726417       41.1051055925       -7.6362700000  MEMB      208             0.0000000000
     23140       208  CHL1      C21           -40.3397627686       41.4161889233       -7.5945800000  MEMB      208             0.0000000000
     23141       208  CHL1      H21A          -40.4444489049       42.1348333506       -6.7538000000  MEMB      208             0.0000000000
     23142       208  CHL1      H21B          -40.5192531566       41.9614983396       -8.5457600000  MEMB      208             0.0000000000
     23143       208  CHL1      H21C          -39.3294579904       40.9638592038       -7.4996900000  MEMB      208             0.0000000000
     23144       208  CHL1      C22           -41.6560401179       39.7486552482       -6.1765300000  MEMB      208             0.0000000000
     23145       208  CHL1      H22A          -42.6124726650       39.1833741859       -6.1777000000  MEMB      208             0.0000000000
     23146       208  CHL1      H22B          -40.7907675733       39.0554302308       -6.1053100000  MEMB      208             0.0000000000
     23147       208  CHL1      C23           -41.5054663539       40.6074347989       -4.9308000000  MEMB      208             0.0000000000
     23148       208  CHL1      H23A          -40.4613965648       40.9827299904       -4.9890600000  MEMB      208             0.0000000000
     23149       208  CHL1      H23B          -42.1599930912       41.4792740721       -5.1448300000  MEMB      208             0.0000000000
     23150       208  CHL1      C24           -41.7656237112       39.9036884930       -3.5876700000  MEMB      208             0.0000000000
     23151       208  CHL1      H24A          -42.7541631819       39.3982899820       -3.6286200000  MEMB      208             0.0000000000
     23152       208  CHL1      H24B          -40.9915042865       39.1100676654       -3.5153600000  MEMB      208             0.0000000000
     23153       208  CHL1      C25           -41.8320056933       40.8749805115       -2.3650200000  MEMB      208             0.0000000000
     23154       208  CHL1      H25           -42.5592125576       41.6845456196       -2.5888600000  MEMB      208             0.0000000000
     23155       208  CHL1      C26           -42.1663334176       39.9541072559       -1.1158400000  MEMB      208             0.0000000000
     23156       208  CHL1      H26A          -43.1170581244       39.4078082104       -1.2947100000  MEMB      208             0.0000000000
     23157       208  CHL1      H26B          -41.3480659854       39.2207536402       -0.9516900000  MEMB      208             0.0000000000
     23158       208  CHL1      H26C          -42.3409966199       40.5685323628       -0.2068300000  MEMB      208             0.0000000000
     23159       208  CHL1      C27           -40.5015015787       41.6208521131       -2.1196900000  MEMB      208             0.0000000000
     23160       208  CHL1      H27A          -40.3897124553       42.2172280882       -3.0503700000  MEMB      208             0.0000000000
     23161       208  CHL1      H27B          -40.7164388657       42.2718277958       -1.2454200000  MEMB      208             0.0000000000
     23162       208  CHL1      H27C          -39.6457100070       40.9260078516       -1.9814300000  MEMB      208             0.0000000000
     23163       209  POPC      N               5.4668819537       29.9190530419      -20.3716853224  MEMB      209             0.0000000000
     23164       209  POPC      C12             6.3462767334       28.7364755250      -19.9701552481  MEMB      209             0.0000000000
     23165       209  POPC      H12A            7.4144759081       28.8945814002      -19.9889465605  MEMB      209             0.0000000000
     23166       209  POPC      H12B            6.2504106967       27.9843670714      -20.7392732292  MEMB      209             0.0000000000
     23167       209  POPC      C13             4.1109242630       29.4561414610      -20.8857645135  MEMB      209             0.0000000000
     23168       209  POPC      H13A            4.2843192856       28.6223210299      -21.5499013338  MEMB      209             0.0000000000
     23169       209  POPC      H13B            3.4860930062       29.1245148568      -20.0696703993  MEMB      209             0.0000000000
     23170       209  POPC      H13C            3.6363598861       30.2676333635      -21.4174313954  MEMB      209             0.0000000000
     23171       209  POPC      C14             5.4319284375       30.9102357222      -19.2244913274  MEMB      209             0.0000000000
     23172       209  POPC      H14A            4.7962450738       31.7588114124      -19.4299814427  MEMB      209             0.0000000000
     23173       209  POPC      H14B            5.1299285628       30.3999252054      -18.3218401141  MEMB      209             0.0000000000
     23174       209  POPC      H14C            6.4404473442       31.2558114708      -19.0516708936  MEMB      209             0.0000000000
     23175       209  POPC      C15             6.2969722702       30.5953188030      -21.4148205528  MEMB      209             0.0000000000
     23176       209  POPC      H15A            5.8671786631       31.5549143506      -21.6615060676  MEMB      209             0.0000000000
     23177       209  POPC      H15B            6.3253143201       29.9691188630      -22.2942920810  MEMB      209             0.0000000000
     23178       209  POPC      H15C            7.3001543374       30.7915460027      -21.0662223754  MEMB      209             0.0000000000
     23179       209  POPC      C11             5.9397282380       28.0145625594      -18.6674953022  MEMB      209             0.0000000000
     23180       209  POPC      H11A            5.6795726682       28.7079946646      -17.8393697171  MEMB      209             0.0000000000
     23181       209  POPC      H11B            6.7937072087       27.4390842944      -18.2505232518  MEMB      209             0.0000000000
     23182       209  POPC      P               3.8196043250       26.9563652188      -17.7000315002  MEMB      209             0.0000000000
     23183       209  POPC      O13             4.4395123790       26.1076229917      -16.6663313977  MEMB      209             0.0000000000
     23184       209  POPC      O14             2.5525428819       26.4635699894      -18.2966589497  MEMB      209             0.0000000000
     23185       209  POPC      O12             4.8756375666       27.1808845088      -18.8174133812  MEMB      209             0.0000000000
     23186       209  POPC      O11             3.5615491910       28.3415626610      -16.9851525045  MEMB      209             0.0000000000
     23187       209  POPC      C1              2.5867683968       29.3422562228      -17.4343636021  MEMB      209             0.0000000000
     23188       209  POPC      HA              1.6281572693       28.8849551134      -17.7603416484  MEMB      209             0.0000000000
     23189       209  POPC      HB              3.0663312510       29.9542552396      -18.2279614811  MEMB      209             0.0000000000
     23190       209  POPC      C2              2.2236708137       30.1918461960      -16.1803703555  MEMB      209             0.0000000000
     23191       209  POPC      HS              1.7546350382       31.1556440883      -16.4726370117  MEMB      209             0.0000000000
     23192       209  POPC      O21             3.4070609584       30.4495493417      -15.3488098240  MEMB      209             0.0000000000
     23193       209  POPC      C21             3.3778912775       31.2909640288      -14.4197969331  MEMB      209             0.0000000000
     23194       209  POPC      O22             2.5991373733       32.1846536078      -14.0906140511  MEMB      209             0.0000000000
     23195       209  POPC      C22             4.6376830107       30.8720701647      -13.5821590170  MEMB      209             0.0000000000
     23196       209  POPC      H2R             5.4140691715       31.4546921361      -14.1226194553  MEMB      209             0.0000000000
     23197       209  POPC      H2S             4.8195625597       29.7868384545      -13.7354987055  MEMB      209             0.0000000000
     23198       209  POPC      C3              1.1950485788       29.5934399201      -15.2839979693  MEMB      209             0.0000000000
     23199       209  POPC      HX              0.1969617493       29.6132154203      -15.7715967136  MEMB      209             0.0000000000
     23200       209  POPC      HY              1.1049657232       30.3298235252      -14.4569880069  MEMB      209             0.0000000000
     23201       209  POPC      O31             1.5419336620       28.3037614392      -14.8242996398  MEMB      209             0.0000000000
     23202       209  POPC      C31             0.7652069641       27.2797800368      -14.8956152340  MEMB      209             0.0000000000
     23203       209  POPC      O32            -0.3828766785       27.3242142242      -15.2243697094  MEMB      209             0.0000000000
     23204       209  POPC      C32             1.5043685860       25.9099404096      -14.6387909045  MEMB      209             0.0000000000
     23205       209  POPC      H2X             2.5098210353       25.9100202283      -15.1114284189  MEMB      209             0.0000000000
     23206       209  POPC      H2Y             0.9457339460       25.0597732880      -15.0854051376  MEMB      209             0.0000000000
     23207       209  POPC      C23             4.4725404627       31.0315368753      -12.1137303693  MEMB      209             0.0000000000
     23208       209  POPC      H3R             4.4618016245       32.0855124917      -11.7625308199  MEMB      209             0.0000000000
     23209       209  POPC      H3S             5.4086803375       30.5618298805      -11.7431383455  MEMB      209             0.0000000000
     23210       209  POPC      C24             3.3552732944       30.2473423065      -11.4415855466  MEMB      209             0.0000000000
     23211       209  POPC      H4R             3.7057383076       29.1930954049      -11.4492397196  MEMB      209             0.0000000000
     23212       209  POPC      H4S             2.4414271143       30.3580912118      -12.0636310482  MEMB      209             0.0000000000
     23213       209  POPC      C25             3.1536804768       30.4971882817       -9.9881988532  MEMB      209             0.0000000000
     23214       209  POPC      H5R             2.3243165189       29.8928797383       -9.5624203551  MEMB      209             0.0000000000
     23215       209  POPC      H5S             2.9356875317       31.5863015531       -9.9630499146  MEMB      209             0.0000000000
     23216       209  POPC      C26             4.3968064214       30.3266156829       -9.0853890351  MEMB      209             0.0000000000
     23217       209  POPC      H6R             5.3173386057       30.8812711464       -9.3669897490  MEMB      209             0.0000000000
     23218       209  POPC      H6S             4.6635032841       29.2578784565       -8.9404941686  MEMB      209             0.0000000000
     23219       209  POPC      C27             4.0713292051       30.7990436636       -7.5968339022  MEMB      209             0.0000000000
     23220       209  POPC      H7R             3.0900053926       30.3193183374       -7.3938853485  MEMB      209             0.0000000000
     23221       209  POPC      H7S             4.0111086110       31.9076147010       -7.5548246109  MEMB      209             0.0000000000
     23222       209  POPC      C28             5.0754701081       30.3633679285       -6.5263624871  MEMB      209             0.0000000000
     23223       209  POPC      H8R             5.4085013380       29.3247806431       -6.7378995853  MEMB      209             0.0000000000
     23224       209  POPC      H8S             4.5567827944       30.3554116555       -5.5439064074  MEMB      209             0.0000000000
     23225       209  POPC      C29             6.2271807467       31.3308007602       -6.4130582485  MEMB      209             0.0000000000
     23226       209  POPC      H91             7.0558832545       30.9723409254       -7.0413566470  MEMB      209             0.0000000000
     23227       209  POPC      C210            6.2992938399       32.3993829440       -5.6107775698  MEMB      209             0.0000000000
     23228       209  POPC      H101            7.1959692840       33.0365319986       -5.6070376324  MEMB      209             0.0000000000
     23229       209  POPC      C211            5.2942983773       32.8769700999       -4.6566312250  MEMB      209             0.0000000000
     23230       209  POPC      H11R            4.2960137302       32.4237765533       -4.8365323191  MEMB      209             0.0000000000
     23231       209  POPC      H11S            5.2158521866       33.9851926851       -4.6597894171  MEMB      209             0.0000000000
     23232       209  POPC      C212            5.6168863000       32.4207907027       -3.1829489975  MEMB      209             0.0000000000
     23233       209  POPC      H12R            6.7055520202       32.4140495295       -2.9614040770  MEMB      209             0.0000000000
     23234       209  POPC      H12S            5.1940128246       31.4027166934       -3.0450182477  MEMB      209             0.0000000000
     23235       209  POPC      C213            4.8694455257       33.2436209363       -2.1151887889  MEMB      209             0.0000000000
     23236       209  POPC      H13R            3.7694054005       33.3720103494       -2.2032164037  MEMB      209             0.0000000000
     23237       209  POPC      H13S            5.2014092442       34.2886802167       -2.2939958891  MEMB      209             0.0000000000
     23238       209  POPC      C214            5.1240426065       32.9295719612       -0.6086388592  MEMB      209             0.0000000000
     23239       209  POPC      H14R            4.6041721906       31.9886759222       -0.3279785814  MEMB      209             0.0000000000
     23240       209  POPC      H14S            4.6207432196       33.7357429135       -0.0332265931  MEMB      209             0.0000000000
     23241       209  POPC      C215            6.6443937297       32.7729736040       -0.2363392956  MEMB      209             0.0000000000
     23242       209  POPC      H15R            7.1358812524       33.7541144792       -0.4099015129  MEMB      209             0.0000000000
     23243       209  POPC      H15S            7.1732009733       32.0053821655       -0.8408952198  MEMB      209             0.0000000000
     23244       209  POPC      C216            6.7563651362       32.4354271499        1.2903728286  MEMB      209             0.0000000000
     23245       209  POPC      H16R            6.2686535816       31.4705938957        1.5464111898  MEMB      209             0.0000000000
     23246       209  POPC      H16S            6.2789978731       33.2408693056        1.8884580270  MEMB      209             0.0000000000
     23247       209  POPC      C217            8.2192146981       32.3502406895        1.7150670887  MEMB      209             0.0000000000
     23248       209  POPC      H17R            8.2747678653       32.2182942744        2.8168028682  MEMB      209             0.0000000000
     23249       209  POPC      H17S            8.6725142179       33.3388042334        1.4879491099  MEMB      209             0.0000000000
     23250       209  POPC      C218            9.0656500871       31.2150242309        1.2015478784  MEMB      209             0.0000000000
     23251       209  POPC      H18R            8.5965260571       30.2441963374        1.4693847135  MEMB      209             0.0000000000
     23252       209  POPC      H18S           10.0425109376       31.1466392462        1.7263221196  MEMB      209             0.0000000000
     23253       209  POPC      H18T            9.2507189130       31.2766215344        0.1078039740  MEMB      209             0.0000000000
     23254       209  POPC      C33             1.6431237574       25.6774534813      -13.1382535882  MEMB      209             0.0000000000
     23255       209  POPC      H3X             2.1194406710       24.6862492476      -12.9802744901  MEMB      209             0.0000000000
     23256       209  POPC      H3Y             0.6605803846       25.8112447577      -12.6372251768  MEMB      209             0.0000000000
     23257       209  POPC      C34             2.7161556645       26.6600723217      -12.4756984179  MEMB      209             0.0000000000
     23258       209  POPC      H4X             2.3544057654       27.7062468146      -12.5704453301  MEMB      209             0.0000000000
     23259       209  POPC      H4Y             3.5561235643       26.4402998915      -13.1688612344  MEMB      209             0.0000000000
     23260       209  POPC      C35             3.1063469543       26.2579021760      -11.0639050095  MEMB      209             0.0000000000
     23261       209  POPC      H5X             3.9267219910       26.9906741391      -10.9078564262  MEMB      209             0.0000000000
     23262       209  POPC      H5Y             3.5930426057       25.2603124553      -11.1114736479  MEMB      209             0.0000000000
     23263       209  POPC      C36             2.1035713525       26.4753379168       -9.8321877122  MEMB      209             0.0000000000
     23264       209  POPC      H6X             1.4548588274       25.5734187605       -9.8262434501  MEMB      209             0.0000000000
     23265       209  POPC      H6Y             1.6883808243       27.4971100297       -9.9660518370  MEMB      209             0.0000000000
     23266       209  POPC      C37             2.8799975833       26.6455777333       -8.5597683955  MEMB      209             0.0000000000
     23267       209  POPC      H7X             3.7603751370       27.2384264391       -8.8880771352  MEMB      209             0.0000000000
     23268       209  POPC      H7Y             3.1168171820       25.6550834609       -8.1157431409  MEMB      209             0.0000000000
     23269       209  POPC      C38             2.1252828604       27.4695767033       -7.5078731637  MEMB      209             0.0000000000
     23270       209  POPC      H8X             1.1332534330       26.9929210974       -7.3562219613  MEMB      209             0.0000000000
     23271       209  POPC      H8Y             2.0057371793       28.5208273586       -7.8468449148  MEMB      209             0.0000000000
     23272       209  POPC      C39             2.8370083606       27.3515208655       -6.1702474192  MEMB      209             0.0000000000
     23273       209  POPC      H9X             3.9127214971       27.6150112675       -6.2581958335  MEMB      209             0.0000000000
     23274       209  POPC      H9Y             2.7583304163       26.2836603972       -5.8739285122  MEMB      209             0.0000000000
     23275       209  POPC      C310            2.1795550360       28.1234210665       -5.0663473188  MEMB      209             0.0000000000
     23276       209  POPC      H10X            1.0709486209       28.0621880754       -5.1058851794  MEMB      209             0.0000000000
     23277       209  POPC      H10Y            2.4405541339       29.1871041339       -5.2528380117  MEMB      209             0.0000000000
     23278       209  POPC      C311            2.7249676705       27.6115435911       -3.7340510849  MEMB      209             0.0000000000
     23279       209  POPC      H11X            3.7982598802       27.8985212126       -3.7369854581  MEMB      209             0.0000000000
     23280       209  POPC      H11Y            2.5657661500       26.5236264415       -3.5746389617  MEMB      209             0.0000000000
     23281       209  POPC      C312            2.1663130705       28.3856673851       -2.5543746317  MEMB      209             0.0000000000
     23282       209  POPC      H12X            1.1033869955       28.0774634422       -2.6519439380  MEMB      209             0.0000000000
     23283       209  POPC      H12Y            2.1310953780       29.4778146131       -2.7551123813  MEMB      209             0.0000000000
     23284       209  POPC      C313            2.9062343928       28.1074151985       -1.1943810751  MEMB      209             0.0000000000
     23285       209  POPC      H13X            2.7410896717       27.0765758036       -0.8143554650  MEMB      209             0.0000000000
     23286       209  POPC      H13Y            2.5114163176       28.8406468302       -0.4589822703  MEMB      209             0.0000000000
     23287       209  POPC      C314            4.4095507403       28.4327350829       -1.2191944624  MEMB      209             0.0000000000
     23288       209  POPC      H14X            4.5839867861       29.3072889821       -1.8818005148  MEMB      209             0.0000000000
     23289       209  POPC      H14Y            5.0359509131       27.7034501520       -1.7760484439  MEMB      209             0.0000000000
     23290       209  POPC      C315            5.0223695300       28.7314742431        0.1487633761  MEMB      209             0.0000000000
     23291       209  POPC      H15X            4.7681830033       29.7414594808        0.5355970817  MEMB      209             0.0000000000
     23292       209  POPC      H15Y            6.1255644679       28.6627164157        0.0367180661  MEMB      209             0.0000000000
     23293       209  POPC      C316            4.7480680472       27.7605681024        1.2872245195  MEMB      209             0.0000000000
     23294       209  POPC      H16X            5.1086989639       26.7457309376        1.0145119586  MEMB      209             0.0000000000
     23295       209  POPC      H16Y            3.6475177678       27.6306503318        1.3661646696  MEMB      209             0.0000000000
     23296       209  POPC      H16Z            5.2478770180       28.1823802412        2.1853264702  MEMB      209             0.0000000000
     23297       210  POPC      N              12.2168564305      -17.8969604938      -18.3006332903  MEMB      210             0.0000000000
     23298       210  POPC      C12            11.8268112549      -17.6498882754      -19.7167460002  MEMB      210             0.0000000000
     23299       210  POPC      H12A           10.7855517445      -17.9126541765      -19.8313428494  MEMB      210             0.0000000000
     23300       210  POPC      H12B           12.3484577401      -18.4022399506      -20.2896786888  MEMB      210             0.0000000000
     23301       210  POPC      C13            11.6811551802      -16.8125989130      -17.4137894555  MEMB      210             0.0000000000
     23302       210  POPC      H13A           11.9218985099      -17.2355626840      -16.4496605961  MEMB      210             0.0000000000
     23303       210  POPC      H13B           12.1926560364      -15.9057740821      -17.7009053510  MEMB      210             0.0000000000
     23304       210  POPC      H13C           10.6271649406      -16.7045459101      -17.6231436168  MEMB      210             0.0000000000
     23305       210  POPC      C14            11.5813106173      -19.1933956862      -17.7740012588  MEMB      210             0.0000000000
     23306       210  POPC      H14A           11.9223695923      -20.0563534179      -18.3266157331  MEMB      210             0.0000000000
     23307       210  POPC      H14B           11.7975703467      -19.3685243726      -16.7304679739  MEMB      210             0.0000000000
     23308       210  POPC      H14C           10.5093155650      -19.2540740258      -17.8903822955  MEMB      210             0.0000000000
     23309       210  POPC      C15            13.6805424861      -17.9559098833      -18.1316899040  MEMB      210             0.0000000000
     23310       210  POPC      H15A           14.0962087626      -18.6624342770      -18.8348576492  MEMB      210             0.0000000000
     23311       210  POPC      H15B           13.9278160336      -18.2024951052      -17.1097058985  MEMB      210             0.0000000000
     23312       210  POPC      H15C           14.1426784569      -17.0136074608      -18.3864379962  MEMB      210             0.0000000000
     23313       210  POPC      C11            11.9757401472      -16.2417938429      -20.2542988017  MEMB      210             0.0000000000
     23314       210  POPC      H11A           11.1110950804      -15.6549563235      -19.8770302148  MEMB      210             0.0000000000
     23315       210  POPC      H11B           11.8950749708      -16.3203476680      -21.3595786066  MEMB      210             0.0000000000
     23316       210  POPC      P              13.4937738898      -14.1879410043      -19.4996344286  MEMB      210             0.0000000000
     23317       210  POPC      O13            12.1201054402      -13.5839488051      -19.5066276266  MEMB      210             0.0000000000
     23318       210  POPC      O14            14.4586799472      -13.4868155340      -20.3876251672  MEMB      210             0.0000000000
     23319       210  POPC      O12            13.3298996811      -15.6650919294      -20.0417539289  MEMB      210             0.0000000000
     23320       210  POPC      O11            14.0298508264      -14.3614123369      -17.9732001853  MEMB      210             0.0000000000
     23321       210  POPC      C1             15.2344117023      -13.6339840021      -17.7115108930  MEMB      210             0.0000000000
     23322       210  POPC      HA             15.3093443749      -12.6985739830      -18.3062497272  MEMB      210             0.0000000000
     23323       210  POPC      HB             16.0997515677      -14.3302148106      -17.7392718497  MEMB      210             0.0000000000
     23324       210  POPC      C2             15.1574881414      -13.1057666328      -16.2359033635  MEMB      210             0.0000000000
     23325       210  POPC      HS             16.1834439202      -12.8151244212      -15.9240333416  MEMB      210             0.0000000000
     23326       210  POPC      O21            14.6291042433      -14.1300856578      -15.3895211461  MEMB      210             0.0000000000
     23327       210  POPC      C21            15.4806807021      -14.9574924610      -14.8535597375  MEMB      210             0.0000000000
     23328       210  POPC      O22            16.6466041357      -15.1473821214      -15.1412645753  MEMB      210             0.0000000000
     23329       210  POPC      C22            14.8078297166      -15.8128738747      -13.7723997290  MEMB      210             0.0000000000
     23330       210  POPC      H2R            14.7242426671      -15.3144999484      -12.7829767405  MEMB      210             0.0000000000
     23331       210  POPC      H2S            15.5146272557      -16.6649935543      -13.6793915584  MEMB      210             0.0000000000
     23332       210  POPC      C3             14.2748671836      -11.8290619582      -16.0480663714  MEMB      210             0.0000000000
     23333       210  POPC      HX             13.2640639956      -12.2227889412      -16.2880180097  MEMB      210             0.0000000000
     23334       210  POPC      HY             14.6264720360      -11.0690567292      -16.7781946087  MEMB      210             0.0000000000
     23335       210  POPC      O31            14.3654462512      -11.2733550084      -14.7480525292  MEMB      210             0.0000000000
     23336       210  POPC      C31            13.5789173500      -11.6718585259      -13.7286645075  MEMB      210             0.0000000000
     23337       210  POPC      O32            12.9464428509      -12.7224129453      -13.6795314871  MEMB      210             0.0000000000
     23338       210  POPC      C32            13.6312417706      -10.7265349563      -12.5133389048  MEMB      210             0.0000000000
     23339       210  POPC      H2X            12.5998323910      -10.8215815153      -12.1114910422  MEMB      210             0.0000000000
     23340       210  POPC      H2Y            13.6162684408       -9.6926076358      -12.9196526955  MEMB      210             0.0000000000
     23341       210  POPC      C23            13.3956870031      -16.3001498974      -14.2372879472  MEMB      210             0.0000000000
     23342       210  POPC      H3R            13.6115997246      -16.9068289091      -15.1426293947  MEMB      210             0.0000000000
     23343       210  POPC      H3S            12.7197541777      -15.4948054200      -14.5962534151  MEMB      210             0.0000000000
     23344       210  POPC      C24            12.6033467185      -17.1421189404      -13.2088678646  MEMB      210             0.0000000000
     23345       210  POPC      H4R            13.3546265180      -17.8541638540      -12.8052695602  MEMB      210             0.0000000000
     23346       210  POPC      H4S            11.7395220074      -17.7160854366      -13.6072276151  MEMB      210             0.0000000000
     23347       210  POPC      C25            12.0432245829      -16.2815059531      -12.0801888977  MEMB      210             0.0000000000
     23348       210  POPC      H5R            12.7497704003      -15.6116449219      -11.5450253331  MEMB      210             0.0000000000
     23349       210  POPC      H5S            11.7120250372      -17.0028664037      -11.3028430540  MEMB      210             0.0000000000
     23350       210  POPC      C26            10.8722681955      -15.3356661951      -12.3956363702  MEMB      210             0.0000000000
     23351       210  POPC      H6R            10.0631834065      -15.9503130008      -12.8449829394  MEMB      210             0.0000000000
     23352       210  POPC      H6S            11.3099701735      -14.6164081943      -13.1204853017  MEMB      210             0.0000000000
     23353       210  POPC      C27            10.2301120134      -14.6333616249      -11.1494172107  MEMB      210             0.0000000000
     23354       210  POPC      H7R             9.8618927124      -15.3761637189      -10.4098360258  MEMB      210             0.0000000000
     23355       210  POPC      H7S             9.2742753599      -14.1995988006      -11.5134874339  MEMB      210             0.0000000000
     23356       210  POPC      C28            11.1764718531      -13.6712711704      -10.4880918959  MEMB      210             0.0000000000
     23357       210  POPC      H8R            11.6621265906      -13.1006803366      -11.3083887378  MEMB      210             0.0000000000
     23358       210  POPC      H8S            12.0243377430      -14.1824958455       -9.9840150780  MEMB      210             0.0000000000
     23359       210  POPC      C29            10.5158965638      -12.5722492386       -9.7073811726  MEMB      210             0.0000000000
     23360       210  POPC      H91             9.8755502520      -11.8984284116      -10.2955321522  MEMB      210             0.0000000000
     23361       210  POPC      C210           10.6130526973      -12.3163782545       -8.4375093186  MEMB      210             0.0000000000
     23362       210  POPC      H101           10.0511401860      -11.4463847749       -8.0668807248  MEMB      210             0.0000000000
     23363       210  POPC      C211           11.4560810554      -13.0394302730       -7.4457234678  MEMB      210             0.0000000000
     23364       210  POPC      H11R           12.0724210861      -13.8465772286       -7.8962339212  MEMB      210             0.0000000000
     23365       210  POPC      H11S           10.7387178050      -13.6214780726       -6.8285271119  MEMB      210             0.0000000000
     23366       210  POPC      C212           12.2465494891      -12.1382831438       -6.5529191969  MEMB      210             0.0000000000
     23367       210  POPC      H12R           11.5294753033      -11.5116462533       -5.9806851262  MEMB      210             0.0000000000
     23368       210  POPC      H12S           12.9677261202      -11.4681167767       -7.0678009291  MEMB      210             0.0000000000
     23369       210  POPC      C213           12.9421406933      -12.9547984391       -5.4394465993  MEMB      210             0.0000000000
     23370       210  POPC      H13R           13.8156392059      -13.5082646335       -5.8456441925  MEMB      210             0.0000000000
     23371       210  POPC      H13S           12.1432694501      -13.5989001266       -5.0137017435  MEMB      210             0.0000000000
     23372       210  POPC      C214           13.5319658817      -12.1542829659       -4.2786519998  MEMB      210             0.0000000000
     23373       210  POPC      H14R           12.8348707046      -11.5615079079       -3.6485751158  MEMB      210             0.0000000000
     23374       210  POPC      H14S           14.2027873247      -11.3746506997       -4.6987634106  MEMB      210             0.0000000000
     23375       210  POPC      C215           14.1516519705      -13.1803047993       -3.2592861795  MEMB      210             0.0000000000
     23376       210  POPC      H15R           14.8158823649      -13.7861586529       -3.9120186572  MEMB      210             0.0000000000
     23377       210  POPC      H15S           13.3017540636      -13.7035430405       -2.7712116576  MEMB      210             0.0000000000
     23378       210  POPC      C216           15.0868262818      -12.5812656219       -2.2219753325  MEMB      210             0.0000000000
     23379       210  POPC      H16R           14.4052564337      -12.0614027276       -1.5152039567  MEMB      210             0.0000000000
     23380       210  POPC      H16S           15.7521725914      -11.8948924153       -2.7881271676  MEMB      210             0.0000000000
     23381       210  POPC      C217           16.0209759294      -13.5463836463       -1.5210398983  MEMB      210             0.0000000000
     23382       210  POPC      H17R           16.4057229153      -12.9250545048       -0.6842353649  MEMB      210             0.0000000000
     23383       210  POPC      H17S           16.7774342968      -13.9983453365       -2.1976652354  MEMB      210             0.0000000000
     23384       210  POPC      C218           15.3085034425      -14.7269191608       -0.8584618697  MEMB      210             0.0000000000
     23385       210  POPC      H18R           14.6557849856      -14.4398705777       -0.0064748280  MEMB      210             0.0000000000
     23386       210  POPC      H18S           15.9512107556      -15.5955242198       -0.6000559770  MEMB      210             0.0000000000
     23387       210  POPC      H18T           14.5887457206      -15.1319938579       -1.6015540107  MEMB      210             0.0000000000
     23388       210  POPC      C33            14.8304071755      -11.0460093327      -11.6471341203  MEMB      210             0.0000000000
     23389       210  POPC      H3X            14.8924074621      -10.3839533066      -10.7571008918  MEMB      210             0.0000000000
     23390       210  POPC      H3Y            15.7475617111      -10.8710119039      -12.2492341413  MEMB      210             0.0000000000
     23391       210  POPC      C34            14.8240112271      -12.4839445620      -11.0442285169  MEMB      210             0.0000000000
     23392       210  POPC      H4X            14.9030524460      -13.1078771905      -11.9600790924  MEMB      210             0.0000000000
     23393       210  POPC      H4Y            13.8183135498      -12.6856259374      -10.6173586691  MEMB      210             0.0000000000
     23394       210  POPC      C35            15.9858651088      -12.9685752365      -10.1487937341  MEMB      210             0.0000000000
     23395       210  POPC      H5X            16.1070556823      -12.2845224000       -9.2817843746  MEMB      210             0.0000000000
     23396       210  POPC      H5Y            16.9264623270      -12.7945165298      -10.7138620305  MEMB      210             0.0000000000
     23397       210  POPC      C36            15.9693860422      -14.4602282200       -9.8165499104  MEMB      210             0.0000000000
     23398       210  POPC      H6X            16.8801306513      -14.7683085952       -9.2598163361  MEMB      210             0.0000000000
     23399       210  POPC      H6Y            15.9173592588      -14.9656404374      -10.8045636263  MEMB      210             0.0000000000
     23400       210  POPC      C37            14.8174841765      -14.9196008860       -8.9177801860  MEMB      210             0.0000000000
     23401       210  POPC      H7X            13.7756776647      -14.6564063815       -9.2000723822  MEMB      210             0.0000000000
     23402       210  POPC      H7Y            14.9608139511      -14.3626744889       -7.9671962656  MEMB      210             0.0000000000
     23403       210  POPC      C38            14.8690182167      -16.4778087538       -8.7438593555  MEMB      210             0.0000000000
     23404       210  POPC      H8X            15.6089361443      -16.6295615861       -7.9291111977  MEMB      210             0.0000000000
     23405       210  POPC      H8Y            15.2215457840      -17.1238128410       -9.5761594085  MEMB      210             0.0000000000
     23406       210  POPC      C39            13.4781977017      -17.0737408747       -8.3731230741  MEMB      210             0.0000000000
     23407       210  POPC      H9X            13.4808336387      -18.1715089814       -8.5440594603  MEMB      210             0.0000000000
     23408       210  POPC      H9Y            12.8237210950      -16.6389181762       -9.1585592626  MEMB      210             0.0000000000
     23409       210  POPC      C310           12.9746925569      -16.7282156238       -6.9976768620  MEMB      210             0.0000000000
     23410       210  POPC      H10X           12.5742008705      -15.6924711008       -7.0317463711  MEMB      210             0.0000000000
     23411       210  POPC      H10Y           13.8005717192      -16.6428908139       -6.2594601711  MEMB      210             0.0000000000
     23412       210  POPC      C311           11.8514983243      -17.6939910497       -6.5680163020  MEMB      210             0.0000000000
     23413       210  POPC      H11X           12.1730627675      -18.7538074756       -6.6558036695  MEMB      210             0.0000000000
     23414       210  POPC      H11Y           11.0137586215      -17.6711904967       -7.2973949193  MEMB      210             0.0000000000
     23415       210  POPC      C312           11.2301382803      -17.4145529248       -5.1636044018  MEMB      210             0.0000000000
     23416       210  POPC      H12X           10.4866789003      -18.2269464274       -5.0166147947  MEMB      210             0.0000000000
     23417       210  POPC      H12Y           10.6770200270      -16.4511593562       -5.1795458599  MEMB      210             0.0000000000
     23418       210  POPC      C313           12.3078843084      -17.3070504617       -4.0425101526  MEMB      210             0.0000000000
     23419       210  POPC      H13X           12.8323724466      -16.3475760404       -4.2390849532  MEMB      210             0.0000000000
     23420       210  POPC      H13Y           13.0196312281      -18.1329060142       -4.2562858012  MEMB      210             0.0000000000
     23421       210  POPC      C314           11.7005835344      -17.2834082012       -2.5968715542  MEMB      210             0.0000000000
     23422       210  POPC      H14X           12.5179031462      -17.3804114057       -1.8506152119  MEMB      210             0.0000000000
     23423       210  POPC      H14Y           11.1129906066      -18.2102674280       -2.4237043161  MEMB      210             0.0000000000
     23424       210  POPC      C315           10.9014971992      -16.0679026384       -2.1092395148  MEMB      210             0.0000000000
     23425       210  POPC      H15X           10.0002266137      -16.0982968658       -2.7581689643  MEMB      210             0.0000000000
     23426       210  POPC      H15Y           11.4003036972      -15.0881162762       -2.2690264610  MEMB      210             0.0000000000
     23427       210  POPC      C316           10.4020424725      -16.1101087835       -0.6613563887  MEMB      210             0.0000000000
     23428       210  POPC      H16X            9.9551713298      -15.1546466091       -0.3124739200  MEMB      210             0.0000000000
     23429       210  POPC      H16Y           11.2793737555      -16.2858395031       -0.0027754107  MEMB      210             0.0000000000
     23430       210  POPC      H16Z            9.7236853321      -16.9647733692       -0.4523090388  MEMB      210             0.0000000000
     23431       211  POPC      N             -24.7466710381       -2.5978708758      -19.5404199377  MEMB      211             0.0000000000
     23432       211  POPC      C12           -23.6035755415       -2.2591898309      -20.4835404242  MEMB      211             0.0000000000
     23433       211  POPC      H12A          -23.7387364002       -1.2083003893      -20.6927361650  MEMB      211             0.0000000000
     23434       211  POPC      H12B          -23.9154511028       -2.7147722852      -21.4117528596  MEMB      211             0.0000000000
     23435       211  POPC      C13           -24.6490549892       -1.7756256383      -18.3164298681  MEMB      211             0.0000000000
     23436       211  POPC      H13A          -25.1858096473       -2.0937108991      -17.4348878332  MEMB      211             0.0000000000
     23437       211  POPC      H13B          -23.6289299617       -1.6875766166      -17.9729301878  MEMB      211             0.0000000000
     23438       211  POPC      H13C          -24.9872124145       -0.7684608839      -18.5105148365  MEMB      211             0.0000000000
     23439       211  POPC      C14           -26.0925894260       -2.2553092676      -20.2379939316  MEMB      211             0.0000000000
     23440       211  POPC      H14A          -26.1182030061       -2.9224813972      -21.0868906000  MEMB      211             0.0000000000
     23441       211  POPC      H14B          -26.9623979257       -2.5855963699      -19.6895930442  MEMB      211             0.0000000000
     23442       211  POPC      H14C          -26.0165167597       -1.2172886408      -20.5263098698  MEMB      211             0.0000000000
     23443       211  POPC      C15           -24.6669450798       -4.0068709652      -19.0765509228  MEMB      211             0.0000000000
     23444       211  POPC      H15A          -24.9539706191       -4.6312532594      -19.9097154609  MEMB      211             0.0000000000
     23445       211  POPC      H15B          -25.2739284490       -4.1598211040      -18.1964500299  MEMB      211             0.0000000000
     23446       211  POPC      H15C          -23.6783567271       -4.2595733613      -18.7226660349  MEMB      211             0.0000000000
     23447       211  POPC      C11           -22.1622521846       -2.7236766584      -20.2633557482  MEMB      211             0.0000000000
     23448       211  POPC      H11A          -21.6031350958       -2.0466997331      -20.9440989701  MEMB      211             0.0000000000
     23449       211  POPC      H11B          -22.0789153369       -3.7595827087      -20.6561337945  MEMB      211             0.0000000000
     23450       211  POPC      P             -20.7831362059       -3.6695137052      -18.2334756835  MEMB      211             0.0000000000
     23451       211  POPC      O13           -19.3683469450       -3.4831496339      -18.7327921077  MEMB      211             0.0000000000
     23452       211  POPC      O14           -21.4301694728       -5.0125180014      -18.4217217050  MEMB      211             0.0000000000
     23453       211  POPC      O12           -21.6892332868       -2.5838315005      -18.9519506530  MEMB      211             0.0000000000
     23454       211  POPC      O11           -20.8909050279       -3.1549078427      -16.7417690205  MEMB      211             0.0000000000
     23455       211  POPC      C1            -20.0316542615       -2.0996970298      -16.3636243061  MEMB      211             0.0000000000
     23456       211  POPC      HA            -20.0879991467       -1.3570006148      -17.1879714498  MEMB      211             0.0000000000
     23457       211  POPC      HB            -18.9981568846       -2.4571521712      -16.1675888015  MEMB      211             0.0000000000
     23458       211  POPC      C2            -20.5427220965       -1.4469599478      -14.9939405258  MEMB      211             0.0000000000
     23459       211  POPC      HS            -19.8748067043       -0.5943591330      -14.7463885646  MEMB      211             0.0000000000
     23460       211  POPC      O21           -20.4987472529       -2.4596726394      -13.9281589656  MEMB      211             0.0000000000
     23461       211  POPC      C21           -20.3954449157       -1.9287595517      -12.6710106182  MEMB      211             0.0000000000
     23462       211  POPC      O22           -20.0986842036       -0.7332313859      -12.4164178510  MEMB      211             0.0000000000
     23463       211  POPC      C22           -20.7164235747       -2.9572233110      -11.4742913437  MEMB      211             0.0000000000
     23464       211  POPC      H2R           -21.7287392971       -2.7498440273      -11.0662083562  MEMB      211             0.0000000000
     23465       211  POPC      H2S           -19.9423745155       -2.6580939915      -10.7355827714  MEMB      211             0.0000000000
     23466       211  POPC      C3            -22.0061057193       -0.8796832332      -15.1398289828  MEMB      211             0.0000000000
     23467       211  POPC      HX            -21.9316721818       -0.3182921638      -16.0956639688  MEMB      211             0.0000000000
     23468       211  POPC      HY            -22.3301220754       -0.1492721894      -14.3679261185  MEMB      211             0.0000000000
     23469       211  POPC      O31           -22.8637296223       -1.9167159908      -15.2739225165  MEMB      211             0.0000000000
     23470       211  POPC      C31           -23.7751696155       -2.2670084439      -14.3624188784  MEMB      211             0.0000000000
     23471       211  POPC      O32           -24.0147445784       -1.7201921671      -13.3138112423  MEMB      211             0.0000000000
     23472       211  POPC      C32           -24.3850327879       -3.6222082031      -14.7403299496  MEMB      211             0.0000000000
     23473       211  POPC      H2X           -23.7779470476       -4.0401359539      -15.5716566991  MEMB      211             0.0000000000
     23474       211  POPC      H2Y           -25.4491220817       -3.4879562892      -15.0301770836  MEMB      211             0.0000000000
     23475       211  POPC      C23           -20.4510414998       -4.3958942135      -11.8062864027  MEMB      211             0.0000000000
     23476       211  POPC      H3R           -19.4826507546       -4.4008255946      -12.3508192640  MEMB      211             0.0000000000
     23477       211  POPC      H3S           -21.2405966022       -4.7464272003      -12.5048922486  MEMB      211             0.0000000000
     23478       211  POPC      C24           -20.3823168327       -5.3892367565      -10.6432688558  MEMB      211             0.0000000000
     23479       211  POPC      H4R           -21.3769258268       -5.5334937327      -10.1697042332  MEMB      211             0.0000000000
     23480       211  POPC      H4S           -19.7260831910       -4.9582384635       -9.8571914032  MEMB      211             0.0000000000
     23481       211  POPC      C25           -19.7164568432       -6.7635529855      -11.0074201549  MEMB      211             0.0000000000
     23482       211  POPC      H5R           -18.6366413830       -6.6982446342      -11.2605100335  MEMB      211             0.0000000000
     23483       211  POPC      H5S           -20.2604461483       -7.0385766716      -11.9362687219  MEMB      211             0.0000000000
     23484       211  POPC      C26           -20.0077680617       -7.9112606498      -10.0483860620  MEMB      211             0.0000000000
     23485       211  POPC      H6R           -19.8393559966       -8.6881523985      -10.8245285832  MEMB      211             0.0000000000
     23486       211  POPC      H6S           -21.0628299268       -7.9357050428       -9.7011567321  MEMB      211             0.0000000000
     23487       211  POPC      C27           -18.9108227693       -7.8734810367       -8.9886667347  MEMB      211             0.0000000000
     23488       211  POPC      H7R           -17.9475721733       -7.4999401070       -9.3972454093  MEMB      211             0.0000000000
     23489       211  POPC      H7S           -18.6189112563       -8.9282851842       -8.7976245994  MEMB      211             0.0000000000
     23490       211  POPC      C28           -19.4086409862       -7.2817078256       -7.6395088201  MEMB      211             0.0000000000
     23491       211  POPC      H8R           -20.4224074625       -7.7284900605       -7.5559379363  MEMB      211             0.0000000000
     23492       211  POPC      H8S           -19.5675295776       -6.1827824203       -7.6774343674  MEMB      211             0.0000000000
     23493       211  POPC      C29           -18.5310799547       -7.7813858430       -6.5277215502  MEMB      211             0.0000000000
     23494       211  POPC      H91           -18.5496775811       -8.8623439518       -6.3247843179  MEMB      211             0.0000000000
     23495       211  POPC      C210          -17.7468745856       -7.0177256244       -5.7374165625  MEMB      211             0.0000000000
     23496       211  POPC      H101          -17.1871246281       -7.5206060521       -4.9350512757  MEMB      211             0.0000000000
     23497       211  POPC      C211          -17.5673775327       -5.5371631899       -5.8509273784  MEMB      211             0.0000000000
     23498       211  POPC      H11R          -17.6902320771       -5.1862731533       -6.8978768734  MEMB      211             0.0000000000
     23499       211  POPC      H11S          -16.5893952045       -5.1117284032       -5.5396764337  MEMB      211             0.0000000000
     23500       211  POPC      C212          -18.5993476718       -4.8868932924       -4.9403250030  MEMB      211             0.0000000000
     23501       211  POPC      H12R          -19.5948590118       -5.3197691011       -5.1767495058  MEMB      211             0.0000000000
     23502       211  POPC      H12S          -18.7034882742       -3.8286741588       -5.2622697568  MEMB      211             0.0000000000
     23503       211  POPC      C213          -18.2342489964       -4.7447205695       -3.4728327322  MEMB      211             0.0000000000
     23504       211  POPC      H13R          -17.2845956318       -4.2322613292       -3.2085125000  MEMB      211             0.0000000000
     23505       211  POPC      H13S          -17.9986889434       -5.6921915882       -2.9426146405  MEMB      211             0.0000000000
     23506       211  POPC      C214          -19.2130463915       -3.8367318600       -2.6725170400  MEMB      211             0.0000000000
     23507       211  POPC      H14R          -19.1230677110       -2.8566579501       -3.1879585987  MEMB      211             0.0000000000
     23508       211  POPC      H14S          -18.8606173652       -3.7247770718       -1.6248622074  MEMB      211             0.0000000000
     23509       211  POPC      C215          -20.6871603179       -4.3247739142       -2.6488397095  MEMB      211             0.0000000000
     23510       211  POPC      H15R          -20.7348907709       -5.2167743361       -1.9882497781  MEMB      211             0.0000000000
     23511       211  POPC      H15S          -21.0028279992       -4.6765059641       -3.6543036303  MEMB      211             0.0000000000
     23512       211  POPC      C216          -21.7177966090       -3.2795557312       -1.9882233623  MEMB      211             0.0000000000
     23513       211  POPC      H16R          -22.6384002416       -3.8992864257       -2.0406063256  MEMB      211             0.0000000000
     23514       211  POPC      H16S          -21.8461391747       -2.4403797325       -2.7049051663  MEMB      211             0.0000000000
     23515       211  POPC      C217          -21.2834113076       -2.7967618350       -0.5628618655  MEMB      211             0.0000000000
     23516       211  POPC      H17R          -22.0710694473       -2.0906136250       -0.2233469039  MEMB      211             0.0000000000
     23517       211  POPC      H17S          -20.2520773360       -2.3836668184       -0.5677567515  MEMB      211             0.0000000000
     23518       211  POPC      C218          -21.1057101156       -3.8486321649        0.5839376561  MEMB      211             0.0000000000
     23519       211  POPC      H18R          -20.7883931084       -4.8334557430        0.1792726509  MEMB      211             0.0000000000
     23520       211  POPC      H18S          -22.0686942569       -3.9484031863        1.1289405437  MEMB      211             0.0000000000
     23521       211  POPC      H18T          -20.3371146905       -3.3932959489        1.2444318593  MEMB      211             0.0000000000
     23522       211  POPC      C33           -24.3370402410       -4.6465629614      -13.5830675107  MEMB      211             0.0000000000
     23523       211  POPC      H3X           -23.3069441971       -4.6851838157      -13.1686623859  MEMB      211             0.0000000000
     23524       211  POPC      H3Y           -24.5153970532       -5.6458259744      -14.0347128363  MEMB      211             0.0000000000
     23525       211  POPC      C34           -25.4644022837       -4.4541188897      -12.4780110135  MEMB      211             0.0000000000
     23526       211  POPC      H4X           -26.4180576342       -4.2936280920      -13.0249162714  MEMB      211             0.0000000000
     23527       211  POPC      H4Y           -25.1896274311       -3.5134770541      -11.9545484969  MEMB      211             0.0000000000
     23528       211  POPC      C35           -25.7696733921       -5.6342609396      -11.5635416845  MEMB      211             0.0000000000
     23529       211  POPC      H5X           -26.1669923159       -6.4907844560      -12.1490557606  MEMB      211             0.0000000000
     23530       211  POPC      H5Y           -26.6039514682       -5.3233599350      -10.8989804159  MEMB      211             0.0000000000
     23531       211  POPC      C36           -24.5541200763       -6.0051300633      -10.7422410914  MEMB      211             0.0000000000
     23532       211  POPC      H6X           -23.7430453751       -5.7810657728      -11.4676888237  MEMB      211             0.0000000000
     23533       211  POPC      H6Y           -24.6794851287       -7.0590057901      -10.4136838561  MEMB      211             0.0000000000
     23534       211  POPC      C37           -24.3018212974       -5.1992887452       -9.3876583936  MEMB      211             0.0000000000
     23535       211  POPC      H7X           -23.3307016063       -5.5622182322       -8.9882462642  MEMB      211             0.0000000000
     23536       211  POPC      H7Y           -25.1684789199       -5.5287864625       -8.7755659490  MEMB      211             0.0000000000
     23537       211  POPC      C38           -24.2582893408       -3.7499911083       -9.5143113066  MEMB      211             0.0000000000
     23538       211  POPC      H8X           -25.2367149323       -3.3122984408       -9.8065939276  MEMB      211             0.0000000000
     23539       211  POPC      H8Y           -23.6488419999       -3.5289395848      -10.4165475130  MEMB      211             0.0000000000
     23540       211  POPC      C39           -23.5108041257       -3.0183138552       -8.3914783445  MEMB      211             0.0000000000
     23541       211  POPC      H9X           -23.5698874490       -1.9137342118       -8.4950831003  MEMB      211             0.0000000000
     23542       211  POPC      H9Y           -22.4433198207       -3.2174763763       -8.6262814645  MEMB      211             0.0000000000
     23543       211  POPC      C310          -23.7179575850       -3.4789298312       -6.9507883014  MEMB      211             0.0000000000
     23544       211  POPC      H10X          -23.3292972158       -4.5195372998       -6.9707972646  MEMB      211             0.0000000000
     23545       211  POPC      H10Y          -24.8129827216       -3.5389741566       -6.7729245750  MEMB      211             0.0000000000
     23546       211  POPC      C311          -23.0110801334       -2.5914187842       -5.8852902093  MEMB      211             0.0000000000
     23547       211  POPC      H11X          -21.9081187608       -2.6995047300       -5.9634843516  MEMB      211             0.0000000000
     23548       211  POPC      H11Y          -23.2646341602       -3.0890018625       -4.9248523855  MEMB      211             0.0000000000
     23549       211  POPC      C312          -23.3657670232       -1.1253728467       -5.9463189717  MEMB      211             0.0000000000
     23550       211  POPC      H12X          -24.4573829608       -1.0571840400       -5.7512651078  MEMB      211             0.0000000000
     23551       211  POPC      H12Y          -23.1274775060       -0.7254794350       -6.9550918864  MEMB      211             0.0000000000
     23552       211  POPC      C313          -22.7198777794       -0.2483297604       -4.8770521462  MEMB      211             0.0000000000
     23553       211  POPC      H13X          -23.1383440218       -0.5395194590       -3.8899266057  MEMB      211             0.0000000000
     23554       211  POPC      H13Y          -22.9633275146        0.8071900130       -5.1238939619  MEMB      211             0.0000000000
     23555       211  POPC      C314          -21.1924301002       -0.4114964287       -4.7374712401  MEMB      211             0.0000000000
     23556       211  POPC      H14X          -20.7811391161       -0.2775725765       -5.7608113453  MEMB      211             0.0000000000
     23557       211  POPC      H14Y          -21.0879334022       -1.4515179328       -4.3609659646  MEMB      211             0.0000000000
     23558       211  POPC      C315          -20.5164282759        0.5665826430       -3.6824823686  MEMB      211             0.0000000000
     23559       211  POPC      H15X          -20.6524829707        1.5814750912       -4.1135305661  MEMB      211             0.0000000000
     23560       211  POPC      H15Y          -19.4197768669        0.4011622268       -3.7481544418  MEMB      211             0.0000000000
     23561       211  POPC      C316          -21.0079547955        0.4357596320       -2.2362554958  MEMB      211             0.0000000000
     23562       211  POPC      H16X          -20.6346897848        1.3502441488       -1.7276176652  MEMB      211             0.0000000000
     23563       211  POPC      H16Y          -20.7667543349       -0.5085005458       -1.7028537925  MEMB      211             0.0000000000
     23564       211  POPC      H16Z          -22.1114766196        0.5100569822       -2.1311823578  MEMB      211             0.0000000000
     23565       212  POPC      N              -3.8576396644       23.7409746341      -19.1483891212  MEMB      212             0.0000000000
     23566       212  POPC      C12            -4.0149637425       22.6844292509      -20.1687980129  MEMB      212             0.0000000000
     23567       212  POPC      H12A           -3.6388740909       23.1070936436      -21.0887497535  MEMB      212             0.0000000000
     23568       212  POPC      H12B           -5.0704764731       22.5396894344      -20.3458382423  MEMB      212             0.0000000000
     23569       212  POPC      C13            -2.4492822478       24.2663831150      -19.2164353578  MEMB      212             0.0000000000
     23570       212  POPC      H13A           -2.1465320129       24.4799060947      -20.2309056794  MEMB      212             0.0000000000
     23571       212  POPC      H13B           -2.4626070509       25.1686069716      -18.6229588661  MEMB      212             0.0000000000
     23572       212  POPC      H13C           -1.7867246698       23.5447160799      -18.7618872417  MEMB      212             0.0000000000
     23573       212  POPC      C14            -4.8465956023       24.8407078186      -19.5373117748  MEMB      212             0.0000000000
     23574       212  POPC      H14A           -4.9649613719       24.9667946468      -20.6033753986  MEMB      212             0.0000000000
     23575       212  POPC      H14B           -5.8226690041       24.6149938544      -19.1339086516  MEMB      212             0.0000000000
     23576       212  POPC      H14C           -4.4764781250       25.7661801843      -19.1214826066  MEMB      212             0.0000000000
     23577       212  POPC      C15            -4.1701607344       23.3416315196      -17.7104103713  MEMB      212             0.0000000000
     23578       212  POPC      H15A           -5.0454401662       22.7657937387      -17.4483098236  MEMB      212             0.0000000000
     23579       212  POPC      H15B           -4.2353079555       24.2496841863      -17.1293801222  MEMB      212             0.0000000000
     23580       212  POPC      H15C           -3.2885312130       22.7868356227      -17.4252246291  MEMB      212             0.0000000000
     23581       212  POPC      C11            -3.3130045393       21.3637478287      -19.8731061978  MEMB      212             0.0000000000
     23582       212  POPC      H11A           -2.2518341412       21.6683644042      -19.7488196490  MEMB      212             0.0000000000
     23583       212  POPC      H11B           -3.2617489930       20.6462612099      -20.7198097417  MEMB      212             0.0000000000
     23584       212  POPC      P              -5.0246290853       19.8764902990      -18.7051498178  MEMB      212             0.0000000000
     23585       212  POPC      O13            -4.9371121445       18.4710563042      -18.2929713434  MEMB      212             0.0000000000
     23586       212  POPC      O14            -5.6687641887       20.0822612936      -20.0397974129  MEMB      212             0.0000000000
     23587       212  POPC      O12            -3.7040265453       20.7179003030      -18.6931394024  MEMB      212             0.0000000000
     23588       212  POPC      O11            -5.9639740871       20.6742651351      -17.6144911825  MEMB      212             0.0000000000
     23589       212  POPC      C1             -6.7821121555       20.1820832944      -16.5610974226  MEMB      212             0.0000000000
     23590       212  POPC      HA             -6.1502193982       19.9448902814      -15.6786169252  MEMB      212             0.0000000000
     23591       212  POPC      HB             -7.2059867370       19.1930124241      -16.8374855426  MEMB      212             0.0000000000
     23592       212  POPC      C2             -7.8165224067       21.2419980613      -16.1207693038  MEMB      212             0.0000000000
     23593       212  POPC      HS             -8.5785061570       21.3744290622      -16.9183678844  MEMB      212             0.0000000000
     23594       212  POPC      O21            -7.2539280934       22.5483982869      -15.9036702838  MEMB      212             0.0000000000
     23595       212  POPC      C21            -8.0627954654       23.4744431356      -15.4658792304  MEMB      212             0.0000000000
     23596       212  POPC      O22            -9.2882428072       23.3529990246      -15.4334435440  MEMB      212             0.0000000000
     23597       212  POPC      C22            -7.2541320717       24.6914258336      -14.9926869390  MEMB      212             0.0000000000
     23598       212  POPC      H2R            -7.7309256151       25.6614136045      -15.2498103192  MEMB      212             0.0000000000
     23599       212  POPC      H2S            -6.2687562119       24.6684952639      -15.5053563252  MEMB      212             0.0000000000
     23600       212  POPC      C3             -8.5486884521       20.7964788545      -14.8590769795  MEMB      212             0.0000000000
     23601       212  POPC      HX             -8.8487742166       19.7337540000      -14.9810829693  MEMB      212             0.0000000000
     23602       212  POPC      HY             -9.5030238668       21.3008492291      -14.5960641758  MEMB      212             0.0000000000
     23603       212  POPC      O31            -7.6216837836       20.8042719685      -13.7556841783  MEMB      212             0.0000000000
     23604       212  POPC      C31            -8.1467734062       20.4446579402      -12.6372859973  MEMB      212             0.0000000000
     23605       212  POPC      O32            -9.2787141073       20.0573078657      -12.4377604198  MEMB      212             0.0000000000
     23606       212  POPC      C32            -6.9870555313       20.4438829874      -11.4866539741  MEMB      212             0.0000000000
     23607       212  POPC      H2X            -5.9946012922       20.7868153128      -11.8496321301  MEMB      212             0.0000000000
     23608       212  POPC      H2Y            -6.8943177168       19.3399858996      -11.4022055676  MEMB      212             0.0000000000
     23609       212  POPC      C23            -7.1780190099       24.6175533755      -13.4355677001  MEMB      212             0.0000000000
     23610       212  POPC      H3R            -8.1231552057       24.2445783046      -12.9862035906  MEMB      212             0.0000000000
     23611       212  POPC      H3S            -7.0164569466       25.6359455280      -13.0219298246  MEMB      212             0.0000000000
     23612       212  POPC      C24            -5.9220732800       23.8318245807      -12.9925380924  MEMB      212             0.0000000000
     23613       212  POPC      H4R            -6.1703856188       22.7656982287      -13.1823712211  MEMB      212             0.0000000000
     23614       212  POPC      H4S            -5.8932828843       23.9554039628      -11.8888080233  MEMB      212             0.0000000000
     23615       212  POPC      C25            -4.5695474154       24.1260493143      -13.7173360330  MEMB      212             0.0000000000
     23616       212  POPC      H5R            -4.1389671973       25.1135502218      -13.4457416347  MEMB      212             0.0000000000
     23617       212  POPC      H5S            -4.6641374375       23.9850652428      -14.8152874265  MEMB      212             0.0000000000
     23618       212  POPC      C26            -3.4794103187       23.0655264367      -13.2698770480  MEMB      212             0.0000000000
     23619       212  POPC      H6R            -2.7185161201       22.9834081572      -14.0752446793  MEMB      212             0.0000000000
     23620       212  POPC      H6S            -3.8931800891       22.0396441691      -13.1665275657  MEMB      212             0.0000000000
     23621       212  POPC      C27            -2.7997231180       23.4508944488      -11.9771996181  MEMB      212             0.0000000000
     23622       212  POPC      H7R            -3.6301257019       23.5645993841      -11.2479370718  MEMB      212             0.0000000000
     23623       212  POPC      H7S            -2.3218379954       24.4395929601      -12.1457884436  MEMB      212             0.0000000000
     23624       212  POPC      C28            -1.6743494396       22.5434204116      -11.4271170803  MEMB      212             0.0000000000
     23625       212  POPC      H8R            -1.0263768940       23.0525171315      -10.6819505526  MEMB      212             0.0000000000
     23626       212  POPC      H8S            -1.0335461837       22.2081005402      -12.2704750891  MEMB      212             0.0000000000
     23627       212  POPC      C29            -2.2676297424       21.3268985829      -10.6992070422  MEMB      212             0.0000000000
     23628       212  POPC      H91            -3.1109033460       20.7434101491      -11.0972409240  MEMB      212             0.0000000000
     23629       212  POPC      C210           -2.0202246621       20.8074317153       -9.4509491148  MEMB      212             0.0000000000
     23630       212  POPC      H101           -2.5576069080       19.9107951275       -9.1085122002  MEMB      212             0.0000000000
     23631       212  POPC      C211           -0.9880109337       21.3749840374       -8.4713596345  MEMB      212             0.0000000000
     23632       212  POPC      H11R           -0.2342651236       22.0794466244       -8.8835740475  MEMB      212             0.0000000000
     23633       212  POPC      H11S           -0.3461805766       20.5604861123       -8.0726512436  MEMB      212             0.0000000000
     23634       212  POPC      C212           -1.6303238273       22.1138756418       -7.3229761099  MEMB      212             0.0000000000
     23635       212  POPC      H12R           -2.2270408844       22.9565223389       -7.7330934894  MEMB      212             0.0000000000
     23636       212  POPC      H12S           -0.8840416028       22.5670806003       -6.6359613023  MEMB      212             0.0000000000
     23637       212  POPC      C213           -2.6551653166       21.3339649519       -6.5331566555  MEMB      212             0.0000000000
     23638       212  POPC      H13R           -2.5277227209       20.2682077268       -6.8199341609  MEMB      212             0.0000000000
     23639       212  POPC      H13S           -3.6695274831       21.7214959529       -6.7681254259  MEMB      212             0.0000000000
     23640       212  POPC      C214           -2.4674866867       21.5332527371       -4.9567603694  MEMB      212             0.0000000000
     23641       212  POPC      H14R           -2.5455164516       22.5721054667       -4.5707333651  MEMB      212             0.0000000000
     23642       212  POPC      H14S           -1.4276893605       21.1680499885       -4.8161566951  MEMB      212             0.0000000000
     23643       212  POPC      C215           -3.4965789818       20.7861970915       -4.2208996649  MEMB      212             0.0000000000
     23644       212  POPC      H15R           -3.4050548830       19.7031787673       -4.4511512943  MEMB      212             0.0000000000
     23645       212  POPC      H15S           -4.5517119297       21.0805076902       -4.4063633912  MEMB      212             0.0000000000
     23646       212  POPC      C216           -3.3348962835       20.8129487057       -2.6659275495  MEMB      212             0.0000000000
     23647       212  POPC      H16R           -2.2990015858       20.4664890808       -2.4629269443  MEMB      212             0.0000000000
     23648       212  POPC      H16S           -4.0130768630       20.1140610249       -2.1311861183  MEMB      212             0.0000000000
     23649       212  POPC      C217           -3.6090165013       22.1594594779       -1.8964194768  MEMB      212             0.0000000000
     23650       212  POPC      H17R           -4.6976153172       22.2853222099       -1.7135728815  MEMB      212             0.0000000000
     23651       212  POPC      H17S           -3.3318630139       22.9662738231       -2.6081472412  MEMB      212             0.0000000000
     23652       212  POPC      C218           -2.8349108929       22.4577274071       -0.6236918853  MEMB      212             0.0000000000
     23653       212  POPC      H18R           -2.9763060853       23.4993317028       -0.2639838032  MEMB      212             0.0000000000
     23654       212  POPC      H18S           -1.7372584361       22.3743462514       -0.7737831078  MEMB      212             0.0000000000
     23655       212  POPC      H18T           -3.1094299171       21.7832253999        0.2153595367  MEMB      212             0.0000000000
     23656       212  POPC      C33            -7.5089675993       20.9336644264      -10.1705430431  MEMB      212             0.0000000000
     23657       212  POPC      H3X            -8.1103254353       20.1393685328       -9.6788279086  MEMB      212             0.0000000000
     23658       212  POPC      H3Y            -8.1221324016       21.8351679527      -10.3841812806  MEMB      212             0.0000000000
     23659       212  POPC      C34            -6.3669276508       21.5342744546       -9.2817160322  MEMB      212             0.0000000000
     23660       212  POPC      H4X            -5.7514352702       22.2208410005       -9.9014877483  MEMB      212             0.0000000000
     23661       212  POPC      H4Y            -5.8119628017       20.6591608040       -8.8810779405  MEMB      212             0.0000000000
     23662       212  POPC      C35            -6.9498916341       22.4108182214       -8.1250817583  MEMB      212             0.0000000000
     23663       212  POPC      H5X            -7.5537519818       23.2158752791       -8.5957800825  MEMB      212             0.0000000000
     23664       212  POPC      H5Y            -6.1159789614       22.9439006549       -7.6203709701  MEMB      212             0.0000000000
     23665       212  POPC      C36            -7.7223228096       21.7533412788       -6.9524336740  MEMB      212             0.0000000000
     23666       212  POPC      H6X            -8.5953471537       21.1504874571       -7.2821556832  MEMB      212             0.0000000000
     23667       212  POPC      H6Y            -8.1976652097       22.5043114141       -6.2857895052  MEMB      212             0.0000000000
     23668       212  POPC      C37            -6.8483746026       20.8938679331       -5.9528361367  MEMB      212             0.0000000000
     23669       212  POPC      H7X            -6.0214443650       21.4930741393       -5.5152758051  MEMB      212             0.0000000000
     23670       212  POPC      H7Y            -6.3733877451       20.1198780490       -6.5928744476  MEMB      212             0.0000000000
     23671       212  POPC      C38            -7.7096341949       20.2652989085       -4.8061343865  MEMB      212             0.0000000000
     23672       212  POPC      H8X            -7.0770188291       19.7000607108       -4.0887609522  MEMB      212             0.0000000000
     23673       212  POPC      H8Y            -8.3954613778       19.5287978732       -5.2768019369  MEMB      212             0.0000000000
     23674       212  POPC      C39            -8.5260982282       21.2396568842       -3.9401834737  MEMB      212             0.0000000000
     23675       212  POPC      H9X            -9.4664112829       21.5817502885       -4.4229924733  MEMB      212             0.0000000000
     23676       212  POPC      H9Y            -7.8095096431       22.0580400110       -3.7141952896  MEMB      212             0.0000000000
     23677       212  POPC      C310           -9.0314390666       20.5058333216       -2.6862205323  MEMB      212             0.0000000000
     23678       212  POPC      H10X           -8.3454117637       19.7246600147       -2.2944865146  MEMB      212             0.0000000000
     23679       212  POPC      H10Y           -9.8280254469       19.7739555415       -2.9394526885  MEMB      212             0.0000000000
     23680       212  POPC      C311           -9.6092521206       21.4868499747       -1.6826863758  MEMB      212             0.0000000000
     23681       212  POPC      H11X          -10.0203838931       20.7886998282       -0.9225040954  MEMB      212             0.0000000000
     23682       212  POPC      H11Y          -10.3954918640       22.1208350433       -2.1455164546  MEMB      212             0.0000000000
     23683       212  POPC      C312           -8.6543714730       22.5369990921       -1.1955669274  MEMB      212             0.0000000000
     23684       212  POPC      H12X           -8.6463657877       23.2283534619       -2.0652133998  MEMB      212             0.0000000000
     23685       212  POPC      H12Y           -7.6461774200       22.1079856533       -1.0116831245  MEMB      212             0.0000000000
     23686       212  POPC      C313           -9.2044640076       23.3246221684       -0.0179211533  MEMB      212             0.0000000000
     23687       212  POPC      H13X           -9.2274446141       22.6929348144        0.8957334224  MEMB      212             0.0000000000
     23688       212  POPC      H13Y          -10.2029257431       23.6691096044       -0.3624843180  MEMB      212             0.0000000000
     23689       212  POPC      C314           -8.2722060566       24.5192485181        0.2974413442  MEMB      212             0.0000000000
     23690       212  POPC      H14X           -8.7090946856       25.1119792342        1.1293794191  MEMB      212             0.0000000000
     23691       212  POPC      H14Y           -8.2154905358       25.1223737475       -0.6338718704  MEMB      212             0.0000000000
     23692       212  POPC      C315           -6.7642911921       24.2399242293        0.6013455979  MEMB      212             0.0000000000
     23693       212  POPC      H15X           -6.3455027781       25.2274283886        0.8907828987  MEMB      212             0.0000000000
     23694       212  POPC      H15Y           -6.1730083956       23.8240170587       -0.2422920883  MEMB      212             0.0000000000
     23695       212  POPC      C316           -6.5209662698       23.2671809784        1.7088710271  MEMB      212             0.0000000000
     23696       212  POPC      H16X           -7.1294371915       23.6104608280        2.5727244921  MEMB      212             0.0000000000
     23697       212  POPC      H16Y           -5.4270778752       23.1359919610        1.8521143330  MEMB      212             0.0000000000
     23698       212  POPC      H16Z           -6.8823452166       22.2515455751        1.4401504144  MEMB      212             0.0000000000
     23699       213  POPE      N               8.7313084748      -23.0706489116      -21.2848070311  MEMB      213             0.0000000000
     23700       213  POPE      HN1             9.6242612075      -23.6015402312      -21.3336917104  MEMB      213             0.0000000000
     23701       213  POPE      HN2             8.7708219851      -22.5395319683      -22.1780894068  MEMB      213             0.0000000000
     23702       213  POPE      HN3             8.7721783935      -22.4532864943      -20.4488683715  MEMB      213             0.0000000000
     23703       213  POPE      C12             7.4459505361      -23.8404014035      -21.2156349768  MEMB      213             0.0000000000
     23704       213  POPE      H12A            7.3749561788      -24.3113516601      -22.2193712751  MEMB      213             0.0000000000
     23705       213  POPE      H12B            6.6226663932      -23.1012857693      -21.1144801071  MEMB      213             0.0000000000
     23706       213  POPE      C11             7.2731005326      -25.0095722697      -20.2775815846  MEMB      213             0.0000000000
     23707       213  POPE      H11A            7.8663833226      -25.8068311086      -20.7742856714  MEMB      213             0.0000000000
     23708       213  POPE      H11B            6.2182112490      -25.3581359748      -20.2833326466  MEMB      213             0.0000000000
     23709       213  POPE      P               6.9880810501      -24.0359790143      -17.8430214212  MEMB      213             0.0000000000
     23710       213  POPE      O13             5.7554256843      -24.7555256985      -17.5203685605  MEMB      213             0.0000000000
     23711       213  POPE      O14             6.8526508113      -22.6554533495      -18.2637179531  MEMB      213             0.0000000000
     23712       213  POPE      O11             8.0319366778      -24.0617960635      -16.6409739699  MEMB      213             0.0000000000
     23713       213  POPE      O12             7.7622148696      -24.8409744878      -18.9538945054  MEMB      213             0.0000000000
     23714       213  POPE      C1              9.2631700619      -24.7421547892      -16.6371314290  MEMB      213             0.0000000000
     23715       213  POPE      HA              9.6936050199      -24.8978546218      -17.6494576637  MEMB      213             0.0000000000
     23716       213  POPE      HB              9.2114376300      -25.7684651191      -16.2148376932  MEMB      213             0.0000000000
     23717       213  POPE      C2             10.2042510985      -23.9573331124      -15.6833365522  MEMB      213             0.0000000000
     23718       213  POPE      HS             11.1612057273      -24.5030434594      -15.5392555239  MEMB      213             0.0000000000
     23719       213  POPE      O21             9.5804567868      -23.7556107679      -14.4061587702  MEMB      213             0.0000000000
     23720       213  POPE      C21            10.3792052340      -23.3890274936      -13.3644543981  MEMB      213             0.0000000000
     23721       213  POPE      O22            11.5636275740      -23.3214658021      -13.3637071181  MEMB      213             0.0000000000
     23722       213  POPE      C22             9.3500178951      -23.1119625339      -12.2538143900  MEMB      213             0.0000000000
     23723       213  POPE      H2R             8.4484393530      -22.5421358166      -12.5649001515  MEMB      213             0.0000000000
     23724       213  POPE      H2S             9.8128438894      -22.3137587434      -11.6349574026  MEMB      213             0.0000000000
     23725       213  POPE      C3             10.6798978427      -22.6044181119      -16.3186631783  MEMB      213             0.0000000000
     23726       213  POPE      HX             11.0633927916      -22.8109209379      -17.3407245305  MEMB      213             0.0000000000
     23727       213  POPE      HY             11.4816313671      -22.1364251808      -15.7083132048  MEMB      213             0.0000000000
     23728       213  POPE      O31             9.6110725214      -21.6875517056      -16.4063882619  MEMB      213             0.0000000000
     23729       213  POPE      C31             9.2795400123      -20.7672713265      -15.4329196777  MEMB      213             0.0000000000
     23730       213  POPE      O32             9.8817607608      -20.6438188342      -14.3812323544  MEMB      213             0.0000000000
     23731       213  POPE      C32             8.1353297592      -19.8495447554      -16.0015924236  MEMB      213             0.0000000000
     23732       213  POPE      H2X             7.3400120770      -20.4692910576      -16.4681816583  MEMB      213             0.0000000000
     23733       213  POPE      H2Y             8.5142669789      -19.1621549988      -16.7878639061  MEMB      213             0.0000000000
     23734       213  POPE      C23             8.8817330864      -24.3016764832      -11.3616117869  MEMB      213             0.0000000000
     23735       213  POPE      H3R             8.2752346000      -23.9519407562      -10.4989615750  MEMB      213             0.0000000000
     23736       213  POPE      H3S             9.7369677993      -24.8836118979      -10.9563390794  MEMB      213             0.0000000000
     23737       213  POPE      C24             8.0209917112      -25.2838150805      -12.1210718140  MEMB      213             0.0000000000
     23738       213  POPE      H4R             8.5998213488      -25.9584573707      -12.7875067205  MEMB      213             0.0000000000
     23739       213  POPE      H4S             7.2888456606      -24.6933043619      -12.7123250665  MEMB      213             0.0000000000
     23740       213  POPE      C25             7.2044725619      -26.2648382894      -11.2524831111  MEMB      213             0.0000000000
     23741       213  POPE      H5R             7.8383542095      -26.8227694480      -10.5305216049  MEMB      213             0.0000000000
     23742       213  POPE      H5S             6.8865207124      -27.0618145022      -11.9582139600  MEMB      213             0.0000000000
     23743       213  POPE      C26             5.8693138349      -25.6606774122      -10.7523506429  MEMB      213             0.0000000000
     23744       213  POPE      H6R             5.3188108970      -25.2856909731      -11.6415369790  MEMB      213             0.0000000000
     23745       213  POPE      H6S             6.0755254385      -24.7597135038      -10.1358590573  MEMB      213             0.0000000000
     23746       213  POPE      C27             4.9840412995      -26.6228649762      -10.0020439174  MEMB      213             0.0000000000
     23747       213  POPE      H7R             4.6027534983      -27.4211196441      -10.6741531499  MEMB      213             0.0000000000
     23748       213  POPE      H7S             4.0593798034      -26.0429180885       -9.7947183869  MEMB      213             0.0000000000
     23749       213  POPE      C28             5.5451028593      -27.1461410465       -8.6806690865  MEMB      213             0.0000000000
     23750       213  POPE      H8R             6.4832591331      -27.7345902906       -8.7696147701  MEMB      213             0.0000000000
     23751       213  POPE      H8S             4.8544994354      -27.7916204471       -8.0969362350  MEMB      213             0.0000000000
     23752       213  POPE      C29             5.8507415245      -25.9569275345       -7.7320132180  MEMB      213             0.0000000000
     23753       213  POPE      H91             4.9591273755      -25.3713659319       -7.4634214703  MEMB      213             0.0000000000
     23754       213  POPE      C210            7.0219352676      -25.5399564453       -7.1932792036  MEMB      213             0.0000000000
     23755       213  POPE      H101            6.9803140411      -24.7475739111       -6.4314408466  MEMB      213             0.0000000000
     23756       213  POPE      C211            8.4339392006      -26.1166328961       -7.3227450174  MEMB      213             0.0000000000
     23757       213  POPE      H11R            8.8430195661      -26.0546177496       -8.3538264721  MEMB      213             0.0000000000
     23758       213  POPE      H11S            8.5169568037      -27.2064290155       -7.1233126657  MEMB      213             0.0000000000
     23759       213  POPE      C212            9.5034219047      -25.4299271004       -6.4650801717  MEMB      213             0.0000000000
     23760       213  POPE      H12R            9.3510737574      -24.3294939136       -6.4525228961  MEMB      213             0.0000000000
     23761       213  POPE      H12S           10.4982752028      -25.6810372172       -6.8911453637  MEMB      213             0.0000000000
     23762       213  POPE      C213            9.6024394952      -25.9492933002       -5.0016901296  MEMB      213             0.0000000000
     23763       213  POPE      H13R           10.5873866332      -25.5909852477       -4.6331588592  MEMB      213             0.0000000000
     23764       213  POPE      H13S            9.6965958563      -27.0561108346       -4.9814295994  MEMB      213             0.0000000000
     23765       213  POPE      C214            8.4613611763      -25.5968344543       -3.9924425709  MEMB      213             0.0000000000
     23766       213  POPE      H14R            7.5299370063      -26.0299567293       -4.4157341151  MEMB      213             0.0000000000
     23767       213  POPE      H14S            8.5433657801      -24.5003495101       -3.8333294740  MEMB      213             0.0000000000
     23768       213  POPE      C215            8.6140409350      -26.3048834070       -2.6439530210  MEMB      213             0.0000000000
     23769       213  POPE      H15R            9.5779588822      -26.1564746357       -2.1118269637  MEMB      213             0.0000000000
     23770       213  POPE      H15S            8.6150238076      -27.3931912668       -2.8673493305  MEMB      213             0.0000000000
     23771       213  POPE      C216            7.5512369125      -26.0593982584       -1.5428586316  MEMB      213             0.0000000000
     23772       213  POPE      H16R            7.6369464226      -26.9506770249       -0.8851372365  MEMB      213             0.0000000000
     23773       213  POPE      H16S            6.5515727145      -26.1105481683       -2.0249125469  MEMB      213             0.0000000000
     23774       213  POPE      C217            7.6316632751      -24.6815144355       -0.7680248986  MEMB      213             0.0000000000
     23775       213  POPE      H17R            6.6106272938      -24.8025898216       -0.3471362451  MEMB      213             0.0000000000
     23776       213  POPE      H17S            7.7067339543      -23.8468503759       -1.4974226678  MEMB      213             0.0000000000
     23777       213  POPE      C218            8.7280711613      -24.5577722742        0.3339179378  MEMB      213             0.0000000000
     23778       213  POPE      H18R            8.7390586831      -23.4988172578        0.6697959691  MEMB      213             0.0000000000
     23779       213  POPE      H18S            9.7327103441      -24.9062183699        0.0120383367  MEMB      213             0.0000000000
     23780       213  POPE      H18T            8.3337061127      -25.1846285282        1.1620769473  MEMB      213             0.0000000000
     23781       213  POPE      C33             7.5972106251      -19.0979301467      -14.7979548037  MEMB      213             0.0000000000
     23782       213  POPE      H3X             6.9311001281      -18.3922710755      -15.3389379546  MEMB      213             0.0000000000
     23783       213  POPE      H3Y             8.2281221912      -18.4816235565      -14.1223527980  MEMB      213             0.0000000000
     23784       213  POPE      C34             6.5441699310      -19.9286268719      -13.9681378831  MEMB      213             0.0000000000
     23785       213  POPE      H4X             6.6291978540      -20.8849965478      -14.5271087565  MEMB      213             0.0000000000
     23786       213  POPE      H4Y             5.4901133910      -19.5790847435      -14.0013925562  MEMB      213             0.0000000000
     23787       213  POPE      C35             6.9236493877      -20.1001794809      -12.4955256740  MEMB      213             0.0000000000
     23788       213  POPE      H5X             7.0048126703      -19.0917086209      -12.0364834987  MEMB      213             0.0000000000
     23789       213  POPE      H5Y             7.9228505881      -20.5822021659      -12.5552930247  MEMB      213             0.0000000000
     23790       213  POPE      C36             5.8488970285      -20.9633401960      -11.7507859449  MEMB      213             0.0000000000
     23791       213  POPE      H6X             6.0926317043      -22.0384260412      -11.8890054512  MEMB      213             0.0000000000
     23792       213  POPE      H6Y             4.8505002193      -20.7209908866      -12.1736237963  MEMB      213             0.0000000000
     23793       213  POPE      C37             5.6634743956      -20.5351847719      -10.2787889498  MEMB      213             0.0000000000
     23794       213  POPE      H7X             5.3892193720      -19.4585847034      -10.2726769637  MEMB      213             0.0000000000
     23795       213  POPE      H7Y             6.6365725647      -20.6612314188       -9.7577192480  MEMB      213             0.0000000000
     23796       213  POPE      C38             4.7243198143      -21.4551381002       -9.5835015361  MEMB      213             0.0000000000
     23797       213  POPE      H8X             4.9884460528      -22.5312952946       -9.6637758763  MEMB      213             0.0000000000
     23798       213  POPE      H8Y             3.6795441077      -21.2932292533       -9.9248967327  MEMB      213             0.0000000000
     23799       213  POPE      C39             4.5007516191      -21.0488057310       -8.0248214940  MEMB      213             0.0000000000
     23800       213  POPE      H9X             3.6353689363      -21.6693057316       -7.7079403198  MEMB      213             0.0000000000
     23801       213  POPE      H9Y             4.1605281463      -19.9938659813       -7.9495162904  MEMB      213             0.0000000000
     23802       213  POPE      C310            5.8052202418      -21.0354554830       -7.2048574927  MEMB      213             0.0000000000
     23803       213  POPE      H10X            6.7388000838      -20.6601926856       -7.6759497870  MEMB      213             0.0000000000
     23804       213  POPE      H10Y            5.9941658140      -22.1300982230       -7.2242888219  MEMB      213             0.0000000000
     23805       213  POPE      C311            5.6727298546      -20.5829873473       -5.7618388627  MEMB      213             0.0000000000
     23806       213  POPE      H11X            5.5417758209      -19.4843117180       -5.8622569530  MEMB      213             0.0000000000
     23807       213  POPE      H11Y            6.5746660431      -20.9033570416       -5.1977508972  MEMB      213             0.0000000000
     23808       213  POPE      C312            4.5047998481      -21.0797276020       -4.9346261325  MEMB      213             0.0000000000
     23809       213  POPE      H12X            4.4860452185      -22.1833010276       -5.0614927923  MEMB      213             0.0000000000
     23810       213  POPE      H12Y            3.6234506420      -20.4886018461       -5.2634339825  MEMB      213             0.0000000000
     23811       213  POPE      C313            4.7691738114      -20.9205247376       -3.4128249737  MEMB      213             0.0000000000
     23812       213  POPE      H13X            5.0532084714      -19.8464576634       -3.4078531427  MEMB      213             0.0000000000
     23813       213  POPE      H13Y            5.6302138019      -21.4938894586       -3.0076285201  MEMB      213             0.0000000000
     23814       213  POPE      C314            3.4905927600      -21.0651002541       -2.4207797973  MEMB      213             0.0000000000
     23815       213  POPE      H14X            2.7087665336      -20.3476861287       -2.7500008477  MEMB      213             0.0000000000
     23816       213  POPE      H14Y            3.8129040770      -20.7242711741       -1.4136690883  MEMB      213             0.0000000000
     23817       213  POPE      C315            3.0324712881      -22.5286966874       -2.1723396541  MEMB      213             0.0000000000
     23818       213  POPE      H15X            2.8680438866      -23.0069785994       -3.1615481269  MEMB      213             0.0000000000
     23819       213  POPE      H15Y            2.0757445939      -22.4898245723       -1.6088833856  MEMB      213             0.0000000000
     23820       213  POPE      C316            4.0272916628      -23.3745186756       -1.4078560326  MEMB      213             0.0000000000
     23821       213  POPE      H16X            3.8143198621      -24.4629685335       -1.3427333062  MEMB      213             0.0000000000
     23822       213  POPE      H16Y            4.2606175538      -22.9945047423       -0.3902756778  MEMB      213             0.0000000000
     23823       213  POPE      H16Z            5.0363178933      -23.2858958510       -1.8642916066  MEMB      213             0.0000000000
     23824       214  POPC      N             -17.3488316392        9.6107190256      -19.0804792368  MEMB      214             0.0000000000
     23825       214  POPC      C12           -16.4817121998       10.7203908266      -18.4713462476  MEMB      214             0.0000000000
     23826       214  POPC      H12A          -15.6732168871       10.9507159315      -19.1493475173  MEMB      214             0.0000000000
     23827       214  POPC      H12B          -16.0473199853       10.2371401887      -17.6086920567  MEMB      214             0.0000000000
     23828       214  POPC      C13           -18.1653393628        9.0320964759      -18.0084397890  MEMB      214             0.0000000000
     23829       214  POPC      H13A          -18.5803404969        9.8198950753      -17.3972544471  MEMB      214             0.0000000000
     23830       214  POPC      H13B          -18.9834270019        8.4614904130      -18.4226156176  MEMB      214             0.0000000000
     23831       214  POPC      H13C          -17.5826803715        8.4625761289      -17.2995285724  MEMB      214             0.0000000000
     23832       214  POPC      C14           -18.1194592269       10.2052651947      -20.2202361268  MEMB      214             0.0000000000
     23833       214  POPC      H14A          -18.8310034911       10.9346142916      -19.8622491438  MEMB      214             0.0000000000
     23834       214  POPC      H14B          -17.4222350076       10.5511899330      -20.9689778081  MEMB      214             0.0000000000
     23835       214  POPC      H14C          -18.4460135871        9.3078158091      -20.7245644666  MEMB      214             0.0000000000
     23836       214  POPC      C15           -16.4619657287        8.5465234234      -19.6472655808  MEMB      214             0.0000000000
     23837       214  POPC      H15A          -15.7894952419        8.1514205585      -18.9002199749  MEMB      214             0.0000000000
     23838       214  POPC      H15B          -15.8394381313        9.0240679356      -20.3894317439  MEMB      214             0.0000000000
     23839       214  POPC      H15C          -16.9703124290        7.7048157828      -20.0939325213  MEMB      214             0.0000000000
     23840       214  POPC      C11           -17.0692235434       12.0968362905      -18.0961710731  MEMB      214             0.0000000000
     23841       214  POPC      H11A          -16.5651503630       12.6138229525      -17.2518038130  MEMB      214             0.0000000000
     23842       214  POPC      H11B          -18.1015673880       11.8299583695      -17.7841402824  MEMB      214             0.0000000000
     23843       214  POPC      P             -16.3925924951       14.3399887875      -19.1284377778  MEMB      214             0.0000000000
     23844       214  POPC      O13           -17.0399312335       15.1647778034      -18.1164295344  MEMB      214             0.0000000000
     23845       214  POPC      O14           -16.1952349010       14.9121064323      -20.5141133611  MEMB      214             0.0000000000
     23846       214  POPC      O12           -17.1919254010       13.0030206800      -19.1590678189  MEMB      214             0.0000000000
     23847       214  POPC      O11           -15.0303460887       13.7798058476      -18.5580134146  MEMB      214             0.0000000000
     23848       214  POPC      C1            -13.7480106678       14.1926010692      -19.0157806801  MEMB      214             0.0000000000
     23849       214  POPC      HA            -13.6733690251       15.2617596174      -19.3084405225  MEMB      214             0.0000000000
     23850       214  POPC      HB            -13.4729097666       13.6013194591      -19.9152396373  MEMB      214             0.0000000000
     23851       214  POPC      C2            -12.7364806725       14.1943771329      -17.8580442062  MEMB      214             0.0000000000
     23852       214  POPC      HS            -11.6840745561       14.2647741316      -18.2070517619  MEMB      214             0.0000000000
     23853       214  POPC      O21           -12.9631528924       12.9335558529      -17.1961938643  MEMB      214             0.0000000000
     23854       214  POPC      C21           -12.3719751200       11.9220021079      -17.6562794255  MEMB      214             0.0000000000
     23855       214  POPC      O22           -11.4804391936       11.8588470281      -18.5333921720  MEMB      214             0.0000000000
     23856       214  POPC      C22           -12.7974752978       10.5913550693      -16.8480355329  MEMB      214             0.0000000000
     23857       214  POPC      H2R           -11.8540913261       10.3609040540      -16.3083693037  MEMB      214             0.0000000000
     23858       214  POPC      H2S           -13.1323063718        9.7478535070      -17.4889053030  MEMB      214             0.0000000000
     23859       214  POPC      C3            -12.9168979463       15.3583314555      -16.7874263184  MEMB      214             0.0000000000
     23860       214  POPC      HX            -12.4490214419       16.3438265423      -16.9976928582  MEMB      214             0.0000000000
     23861       214  POPC      HY            -12.2720832539       15.0533998761      -15.9356328722  MEMB      214             0.0000000000
     23862       214  POPC      O31           -14.3028796758       15.4785578187      -16.4997896358  MEMB      214             0.0000000000
     23863       214  POPC      C31           -14.5637956812       15.7295248261      -15.1856016784  MEMB      214             0.0000000000
     23864       214  POPC      O32           -13.8831292736       15.4813893159      -14.2007491110  MEMB      214             0.0000000000
     23865       214  POPC      C32           -15.7883798878       16.6439493636      -15.0312662411  MEMB      214             0.0000000000
     23866       214  POPC      H2X           -16.6691270553       16.0410941223      -15.3397646430  MEMB      214             0.0000000000
     23867       214  POPC      H2Y           -15.7598751301       17.3470022599      -15.8910483249  MEMB      214             0.0000000000
     23868       214  POPC      C23           -13.8821731731       10.9445820767      -15.8104647867  MEMB      214             0.0000000000
     23869       214  POPC      H3R           -14.8739816776       11.1810336031      -16.2517440508  MEMB      214             0.0000000000
     23870       214  POPC      H3S           -13.5465672513       11.7383981546      -15.1093616455  MEMB      214             0.0000000000
     23871       214  POPC      C24           -14.1278548041        9.7468702040      -14.8678384665  MEMB      214             0.0000000000
     23872       214  POPC      H4R           -13.1714465959        9.5003047349      -14.3591048696  MEMB      214             0.0000000000
     23873       214  POPC      H4S           -14.2944292854        8.9235871447      -15.5950104162  MEMB      214             0.0000000000
     23874       214  POPC      C25           -15.3234113937        9.8454256865      -13.9157356512  MEMB      214             0.0000000000
     23875       214  POPC      H5R           -15.5297501304        8.8904938129      -13.3867270816  MEMB      214             0.0000000000
     23876       214  POPC      H5S           -16.2420990174        9.9630458708      -14.5293311148  MEMB      214             0.0000000000
     23877       214  POPC      C26           -15.1201391173       10.8003575340      -12.6241624332  MEMB      214             0.0000000000
     23878       214  POPC      H6R           -16.0956842749       10.7879712487      -12.0926746219  MEMB      214             0.0000000000
     23879       214  POPC      H6S           -15.0067006621       11.8135182517      -13.0657029214  MEMB      214             0.0000000000
     23880       214  POPC      C27           -13.9862726894       10.5429467765      -11.6978230592  MEMB      214             0.0000000000
     23881       214  POPC      H7R           -13.0431910732       10.6296199545      -12.2786896562  MEMB      214             0.0000000000
     23882       214  POPC      H7S           -14.0182998285        9.4685595995      -11.4167768082  MEMB      214             0.0000000000
     23883       214  POPC      C28           -14.0018908896       11.6118144525      -10.5510540370  MEMB      214             0.0000000000
     23884       214  POPC      H8R           -13.2170836246       11.2919166888       -9.8326776313  MEMB      214             0.0000000000
     23885       214  POPC      H8S           -15.0187017723       11.6519862096      -10.1051809785  MEMB      214             0.0000000000
     23886       214  POPC      C29           -13.6860409313       12.9863269049      -11.0404111135  MEMB      214             0.0000000000
     23887       214  POPC      H91           -14.3438131579       13.3109353963      -11.8601461210  MEMB      214             0.0000000000
     23888       214  POPC      C210          -12.7163707449       13.7383831279      -10.5878047088  MEMB      214             0.0000000000
     23889       214  POPC      H101          -12.5378171551       14.6733817868      -11.1390718054  MEMB      214             0.0000000000
     23890       214  POPC      C211          -11.7236021312       13.5015354639       -9.5278233435  MEMB      214             0.0000000000
     23891       214  POPC      H11R          -11.1001527898       14.4156859032       -9.4280180930  MEMB      214             0.0000000000
     23892       214  POPC      H11S          -10.9713244506       12.7129334753       -9.7434755852  MEMB      214             0.0000000000
     23893       214  POPC      C212          -12.2902347869       13.2847430032       -8.0550768419  MEMB      214             0.0000000000
     23894       214  POPC      H12R          -11.5006770234       13.3330114693       -7.2749551147  MEMB      214             0.0000000000
     23895       214  POPC      H12S          -12.6588462212       12.2406932640       -7.9633894517  MEMB      214             0.0000000000
     23896       214  POPC      C213          -13.4941679647       14.3022257983       -7.6834086541  MEMB      214             0.0000000000
     23897       214  POPC      H13R          -14.3024272889       14.0094370621       -8.3871927336  MEMB      214             0.0000000000
     23898       214  POPC      H13S          -13.2022022762       15.3424263531       -7.9423675054  MEMB      214             0.0000000000
     23899       214  POPC      C214          -14.0829834555       13.9976016836       -6.2840586300  MEMB      214             0.0000000000
     23900       214  POPC      H14R          -13.3189517782       13.6050767718       -5.5794308360  MEMB      214             0.0000000000
     23901       214  POPC      H14S          -14.7826692128       13.1360466879       -6.3338954124  MEMB      214             0.0000000000
     23902       214  POPC      C215          -14.6796380171       15.2959524436       -5.6601578180  MEMB      214             0.0000000000
     23903       214  POPC      H15R          -15.6852220494       15.3720002227       -6.1263537503  MEMB      214             0.0000000000
     23904       214  POPC      H15S          -14.1613192229       16.2653692240       -5.8210845763  MEMB      214             0.0000000000
     23905       214  POPC      C216          -14.8238456446       15.1234049531       -4.0570548911  MEMB      214             0.0000000000
     23906       214  POPC      H16R          -15.3249266294       16.0367513176       -3.6710015459  MEMB      214             0.0000000000
     23907       214  POPC      H16S          -13.8535658160       14.9419456756       -3.5472009689  MEMB      214             0.0000000000
     23908       214  POPC      C217          -15.8496326973       13.9532846441       -3.6730281233  MEMB      214             0.0000000000
     23909       214  POPC      H17R          -15.4928735229       13.0378275816       -4.1916633008  MEMB      214             0.0000000000
     23910       214  POPC      H17S          -16.7647542196       14.3798044285       -4.1366592248  MEMB      214             0.0000000000
     23911       214  POPC      C218          -16.1304077205       13.6977254915       -2.1554542339  MEMB      214             0.0000000000
     23912       214  POPC      H18R          -17.0170198286       13.0289485619       -2.1867200123  MEMB      214             0.0000000000
     23913       214  POPC      H18S          -16.3742365503       14.6420062259       -1.6232866417  MEMB      214             0.0000000000
     23914       214  POPC      H18T          -15.2964787526       13.2512412858       -1.5727586452  MEMB      214             0.0000000000
     23915       214  POPC      C33           -15.9527800112       17.4138297435      -13.7335339870  MEMB      214             0.0000000000
     23916       214  POPC      H3X           -16.4488426910       18.3782218565      -13.9747625310  MEMB      214             0.0000000000
     23917       214  POPC      H3Y           -14.9302371348       17.7884202396      -13.5135136770  MEMB      214             0.0000000000
     23918       214  POPC      C34           -16.8323634687       16.8098611771      -12.6614310595  MEMB      214             0.0000000000
     23919       214  POPC      H4X           -17.6881069997       16.2969984076      -13.1503027690  MEMB      214             0.0000000000
     23920       214  POPC      H4Y           -17.2238229105       17.3958857108      -11.8025620839  MEMB      214             0.0000000000
     23921       214  POPC      C35           -16.1055002740       15.7231327707      -11.8665466438  MEMB      214             0.0000000000
     23922       214  POPC      H5X           -15.3424973575       16.3306049416      -11.3344517442  MEMB      214             0.0000000000
     23923       214  POPC      H5Y           -15.5252854510       14.9974187195      -12.4756534274  MEMB      214             0.0000000000
     23924       214  POPC      C36           -17.0567710993       14.8612250866      -10.9554660678  MEMB      214             0.0000000000
     23925       214  POPC      H6X           -16.4855947730       13.9924440534      -10.5639324951  MEMB      214             0.0000000000
     23926       214  POPC      H6Y           -17.6736415967       14.2857116500      -11.6783603971  MEMB      214             0.0000000000
     23927       214  POPC      C37           -17.6956409769       15.5486816001       -9.7462340601  MEMB      214             0.0000000000
     23928       214  POPC      H7X           -18.0241986939       16.5570134452      -10.0773502827  MEMB      214             0.0000000000
     23929       214  POPC      H7Y           -16.8883648132       15.6953525551       -8.9971585021  MEMB      214             0.0000000000
     23930       214  POPC      C38           -19.0166475304       14.8824752318       -9.2122679823  MEMB      214             0.0000000000
     23931       214  POPC      H8X           -19.7066468068       14.9052589718      -10.0827281678  MEMB      214             0.0000000000
     23932       214  POPC      H8Y           -19.4826335324       15.3715256426       -8.3302197657  MEMB      214             0.0000000000
     23933       214  POPC      C39           -18.7778513557       13.4125115684       -8.6115017660  MEMB      214             0.0000000000
     23934       214  POPC      H9X           -18.4713638140       12.8274805492       -9.5048800986  MEMB      214             0.0000000000
     23935       214  POPC      H9Y           -19.7472568346       13.0119885013       -8.2452306525  MEMB      214             0.0000000000
     23936       214  POPC      C310          -17.7718815328       13.3823541131       -7.4351961860  MEMB      214             0.0000000000
     23937       214  POPC      H10X          -18.0618078808       14.0291132036       -6.5796454884  MEMB      214             0.0000000000
     23938       214  POPC      H10Y          -16.7784262826       13.6906075615       -7.8255131870  MEMB      214             0.0000000000
     23939       214  POPC      C311          -17.5006571488       12.0014011951       -6.8233750660  MEMB      214             0.0000000000
     23940       214  POPC      H11X          -16.7114707240       12.1100535037       -6.0489723439  MEMB      214             0.0000000000
     23941       214  POPC      H11Y          -16.9640270628       11.4613039713       -7.6324755107  MEMB      214             0.0000000000
     23942       214  POPC      C312          -18.7258982959       11.1993099257       -6.4172673633  MEMB      214             0.0000000000
     23943       214  POPC      H12X          -19.3546544091       10.9601275332       -7.3014491108  MEMB      214             0.0000000000
     23944       214  POPC      H12Y          -19.2826056428       11.7016921352       -5.5975053917  MEMB      214             0.0000000000
     23945       214  POPC      C313          -18.2781365350        9.8009029624       -5.8564548340  MEMB      214             0.0000000000
     23946       214  POPC      H13X          -17.8835439171        9.2585132301       -6.7421351936  MEMB      214             0.0000000000
     23947       214  POPC      H13Y          -19.2004864998        9.3048936891       -5.4855556671  MEMB      214             0.0000000000
     23948       214  POPC      C314          -17.2633520705        9.7922236961       -4.7505268664  MEMB      214             0.0000000000
     23949       214  POPC      H14X          -16.2597674252       10.1745693379       -5.0350448397  MEMB      214             0.0000000000
     23950       214  POPC      H14Y          -17.0519110914        8.7225224963       -4.5375638564  MEMB      214             0.0000000000
     23951       214  POPC      C315          -17.7300937421       10.5344088553       -3.5406491931  MEMB      214             0.0000000000
     23952       214  POPC      H15X          -18.8349006840       10.4226112705       -3.5056654867  MEMB      214             0.0000000000
     23953       214  POPC      H15Y          -17.7051244989       11.6436876550       -3.5971988894  MEMB      214             0.0000000000
     23954       214  POPC      C316          -17.1737911386       10.1374571836       -2.1555576921  MEMB      214             0.0000000000
     23955       214  POPC      H16X          -17.6050172770       10.6139357711       -1.2492845510  MEMB      214             0.0000000000
     23956       214  POPC      H16Y          -16.0736593570       10.2831347508       -2.2085565561  MEMB      214             0.0000000000
     23957       214  POPC      H16Z          -17.2750275036        9.0624939105       -1.8937830506  MEMB      214             0.0000000000
     23958       215  POPC      N             -13.3069830669       16.6245045303      -19.1764339452  MEMB      215             0.0000000000
     23959       215  POPC      C12           -12.6726063829       17.3069905221      -20.3865364776  MEMB      215             0.0000000000
     23960       215  POPC      H12A          -13.1999731423       18.2414501464      -20.5092950590  MEMB      215             0.0000000000
     23961       215  POPC      H12B          -12.9459953588       16.7856650012      -21.2920077512  MEMB      215             0.0000000000
     23962       215  POPC      C13           -12.7938064130       15.2303703647      -19.1473294444  MEMB      215             0.0000000000
     23963       215  POPC      H13A          -13.3836043623       14.6024359168      -18.4959948882  MEMB      215             0.0000000000
     23964       215  POPC      H13B          -12.8467567995       14.7046234004      -20.0892351413  MEMB      215             0.0000000000
     23965       215  POPC      H13C          -11.7821553313       15.4219672099      -18.8213652205  MEMB      215             0.0000000000
     23966       215  POPC      C14           -12.9914848248       17.3848029546      -17.9411930007  MEMB      215             0.0000000000
     23967       215  POPC      H14A          -13.2302586222       18.4212890599      -18.1284991485  MEMB      215             0.0000000000
     23968       215  POPC      H14B          -13.6354710980       16.9615189518      -17.1845475557  MEMB      215             0.0000000000
     23969       215  POPC      H14C          -11.9856088591       17.1300935664      -17.6416324248  MEMB      215             0.0000000000
     23970       215  POPC      C15           -14.8085460043       16.5277516609      -19.3372041926  MEMB      215             0.0000000000
     23971       215  POPC      H15A          -15.1089936742       17.5461773815      -19.1398717035  MEMB      215             0.0000000000
     23972       215  POPC      H15B          -15.2632671036       15.9871808232      -18.5202513380  MEMB      215             0.0000000000
     23973       215  POPC      H15C          -15.0748346010       16.1743831657      -20.3224052613  MEMB      215             0.0000000000
     23974       215  POPC      C11           -11.0855020413       17.5071035064      -20.3358111489  MEMB      215             0.0000000000
     23975       215  POPC      H11A          -10.9541690575       17.9778886478      -21.3335256083  MEMB      215             0.0000000000
     23976       215  POPC      H11B          -10.5898154881       16.5130538036      -20.3138769644  MEMB      215             0.0000000000
     23977       215  POPC      P              -9.2745275523       18.0667347242      -18.5047934194  MEMB      215             0.0000000000
     23978       215  POPC      O13            -9.4519944942       18.7569715992      -17.2572763897  MEMB      215             0.0000000000
     23979       215  POPC      O14            -8.0608613970       18.3257970753      -19.3130290229  MEMB      215             0.0000000000
     23980       215  POPC      O12           -10.6501608483       18.3886833536      -19.3292305686  MEMB      215             0.0000000000
     23981       215  POPC      O11            -9.5230069616       16.5136510565      -18.2711623546  MEMB      215             0.0000000000
     23982       215  POPC      C1             -8.4672502957       15.8329927842      -17.5144429338  MEMB      215             0.0000000000
     23983       215  POPC      HA             -7.9939102244       16.4049465461      -16.6879206077  MEMB      215             0.0000000000
     23984       215  POPC      HB             -7.6326680619       15.6090997346      -18.2127731545  MEMB      215             0.0000000000
     23985       215  POPC      C2             -8.9877539719       14.4427463601      -17.0115301867  MEMB      215             0.0000000000
     23986       215  POPC      HS             -9.2746374953       13.9481534790      -17.9641038360  MEMB      215             0.0000000000
     23987       215  POPC      O21           -10.0850964086       14.6898020102      -16.0971895814  MEMB      215             0.0000000000
     23988       215  POPC      C21           -10.9217620513       13.7040899020      -15.9253008511  MEMB      215             0.0000000000
     23989       215  POPC      O22           -10.8641457107       12.6342685204      -16.4402412515  MEMB      215             0.0000000000
     23990       215  POPC      C22           -12.0567132390       14.1341801964      -14.9109990529  MEMB      215             0.0000000000
     23991       215  POPC      H2R           -12.9421782555       13.4969959464      -15.1214016028  MEMB      215             0.0000000000
     23992       215  POPC      H2S           -12.3916530019       15.1850057509      -15.0447982160  MEMB      215             0.0000000000
     23993       215  POPC      C3             -7.8404437395       13.6122582463      -16.2809442951  MEMB      215             0.0000000000
     23994       215  POPC      HX             -6.9478779105       13.5018765005      -16.9332196340  MEMB      215             0.0000000000
     23995       215  POPC      HY             -8.2031791094       12.5990154557      -16.0051123830  MEMB      215             0.0000000000
     23996       215  POPC      O31            -7.5401234783       14.4776200848      -15.1985785258  MEMB      215             0.0000000000
     23997       215  POPC      C31            -7.6227703865       14.0208422618      -13.9185704510  MEMB      215             0.0000000000
     23998       215  POPC      O32            -7.8382841039       12.8828491370      -13.6318406529  MEMB      215             0.0000000000
     23999       215  POPC      C32            -7.1602412079       15.1593176405      -13.0013826874  MEMB      215             0.0000000000
     24000       215  POPC      H2X            -6.0887365400       15.3098504548      -13.2534503802  MEMB      215             0.0000000000
     24001       215  POPC      H2Y            -7.1666169125       14.7687651417      -11.9613111486  MEMB      215             0.0000000000
     24002       215  POPC      C23           -11.5835597326       13.9516018263      -13.4724986820  MEMB      215             0.0000000000
     24003       215  POPC      H3R           -12.2123787312       14.6264630613      -12.8532494383  MEMB      215             0.0000000000
     24004       215  POPC      H3S           -10.5917031209       14.4466774130      -13.3987335738  MEMB      215             0.0000000000
     24005       215  POPC      C24           -11.5635158501       12.4810833241      -13.0016091954  MEMB      215             0.0000000000
     24006       215  POPC      H4R           -11.2036224485       11.9700298637      -13.9200980932  MEMB      215             0.0000000000
     24007       215  POPC      H4S           -12.5621953061       12.0143311951      -12.8633961453  MEMB      215             0.0000000000
     24008       215  POPC      C25           -10.6668886210       12.3707632061      -11.7947310615  MEMB      215             0.0000000000
     24009       215  POPC      H5R            -9.7315356655       12.9371221284      -11.9913872859  MEMB      215             0.0000000000
     24010       215  POPC      H5S           -10.3946495058       11.2973348845      -11.7055203650  MEMB      215             0.0000000000
     24011       215  POPC      C26           -11.1944318508       12.9647303965      -10.4767429163  MEMB      215             0.0000000000
     24012       215  POPC      H6R           -12.0829521314       12.3378720147      -10.2489252123  MEMB      215             0.0000000000
     24013       215  POPC      H6S           -11.5415597071       13.9985638247      -10.6889023977  MEMB      215             0.0000000000
     24014       215  POPC      C27           -10.2146556904       12.9017566546       -9.2431675215  MEMB      215             0.0000000000
     24015       215  POPC      H7R           -10.2574666539       11.8453359312       -8.9018990452  MEMB      215             0.0000000000
     24016       215  POPC      H7S           -10.7351401921       13.4621925046       -8.4373576978  MEMB      215             0.0000000000
     24017       215  POPC      C28            -8.7880911867       13.4302691658       -9.4244893811  MEMB      215             0.0000000000
     24018       215  POPC      H8R            -8.3451371179       12.9525341537      -10.3244239827  MEMB      215             0.0000000000
     24019       215  POPC      H8S            -8.0433503587       13.2474811773       -8.6205805118  MEMB      215             0.0000000000
     24020       215  POPC      C29            -8.8096115066       14.9023407832       -9.6121180905  MEMB      215             0.0000000000
     24021       215  POPC      H91            -9.5932418759       15.2829765968      -10.2837135966  MEMB      215             0.0000000000
     24022       215  POPC      C210           -8.1030894317       15.8793295248       -8.9949251508  MEMB      215             0.0000000000
     24023       215  POPC      H101           -8.2597776745       16.9359388883       -9.2576516684  MEMB      215             0.0000000000
     24024       215  POPC      C211           -7.0920189560       15.6672488704       -7.8573267787  MEMB      215             0.0000000000
     24025       215  POPC      H11R           -6.3610300920       16.4939735200       -7.9857891653  MEMB      215             0.0000000000
     24026       215  POPC      H11S           -6.5381261717       14.7194662388       -8.0282999354  MEMB      215             0.0000000000
     24027       215  POPC      C212           -7.6551402754       15.7344167501       -6.4848803084  MEMB      215             0.0000000000
     24028       215  POPC      H12R           -8.3659996734       14.9124095909       -6.2540028193  MEMB      215             0.0000000000
     24029       215  POPC      H12S           -8.2780459344       16.6261880409       -6.2589302973  MEMB      215             0.0000000000
     24030       215  POPC      C213           -6.6545990376       15.6636561545       -5.3258703475  MEMB      215             0.0000000000
     24031       215  POPC      H13R           -6.1937552197       16.6715323671       -5.2475799521  MEMB      215             0.0000000000
     24032       215  POPC      H13S           -5.8905867253       14.9117564900       -5.6178510608  MEMB      215             0.0000000000
     24033       215  POPC      C214           -7.3530196680       15.3103820861       -4.0055208900  MEMB      215             0.0000000000
     24034       215  POPC      H14R           -7.3552465660       14.2024861643       -3.9225564799  MEMB      215             0.0000000000
     24035       215  POPC      H14S           -8.4084357235       15.6567268425       -3.9839985562  MEMB      215             0.0000000000
     24036       215  POPC      C215           -6.5879841549       15.7512484041       -2.7906148932  MEMB      215             0.0000000000
     24037       215  POPC      H15R           -6.5121687487       16.8595969360       -2.7789411338  MEMB      215             0.0000000000
     24038       215  POPC      H15S           -5.5383177775       15.3924492157       -2.8521353852  MEMB      215             0.0000000000
     24039       215  POPC      C216           -7.2496370968       15.3343314597       -1.4783340687  MEMB      215             0.0000000000
     24040       215  POPC      H16R           -7.1621831191       14.2469438814       -1.2679506805  MEMB      215             0.0000000000
     24041       215  POPC      H16S           -8.3429750563       15.4857620867       -1.6048326811  MEMB      215             0.0000000000
     24042       215  POPC      C217           -6.6876144762       16.0438975359       -0.2004684821  MEMB      215             0.0000000000
     24043       215  POPC      H17R           -6.5224943159       17.1117653639       -0.4587603920  MEMB      215             0.0000000000
     24044       215  POPC      H17S           -5.6913242617       15.6783378673        0.1283073759  MEMB      215             0.0000000000
     24045       215  POPC      C218           -7.6207527847       15.8942519322        1.0689166185  MEMB      215             0.0000000000
     24046       215  POPC      H18R           -7.1570609395       16.2171124459        2.0255088712  MEMB      215             0.0000000000
     24047       215  POPC      H18S           -7.9288718644       14.8516161607        1.2975960749  MEMB      215             0.0000000000
     24048       215  POPC      H18T           -8.6105139932       16.3987224318        1.0546631787  MEMB      215             0.0000000000
     24049       215  POPC      C33            -8.0726126341       16.3574438446      -13.2343623185  MEMB      215             0.0000000000
     24050       215  POPC      H3X            -8.9464328283       16.1588591939      -12.5776101081  MEMB      215             0.0000000000
     24051       215  POPC      H3Y            -8.5442822789       16.5030678885      -14.2296727222  MEMB      215             0.0000000000
     24052       215  POPC      C34            -7.3507533925       17.6776007743      -12.8312817140  MEMB      215             0.0000000000
     24053       215  POPC      H4X            -6.4232348406       17.6511634726      -13.4422900877  MEMB      215             0.0000000000
     24054       215  POPC      H4Y            -7.0270424191       17.6392551214      -11.7691795843  MEMB      215             0.0000000000
     24055       215  POPC      C35            -8.1273800782       18.9849578496      -13.3346374999  MEMB      215             0.0000000000
     24056       215  POPC      H5X            -8.5730157356       18.6231454766      -14.2858585596  MEMB      215             0.0000000000
     24057       215  POPC      H5Y            -7.3751841785       19.7887456011      -13.4844634340  MEMB      215             0.0000000000
     24058       215  POPC      C36            -9.1514211892       19.6030738580      -12.4091819997  MEMB      215             0.0000000000
     24059       215  POPC      H6X            -9.4425036030       20.5457677849      -12.9199855786  MEMB      215             0.0000000000
     24060       215  POPC      H6Y            -8.7565688242       19.8602805069      -11.4030721012  MEMB      215             0.0000000000
     24061       215  POPC      C37           -10.4457598052       18.7660001329      -12.1931495349  MEMB      215             0.0000000000
     24062       215  POPC      H7X           -10.2206635244       17.7238668870      -11.8807217966  MEMB      215             0.0000000000
     24063       215  POPC      H7Y           -11.0207423595       18.5686851619      -13.1230865480  MEMB      215             0.0000000000
     24064       215  POPC      C38           -11.2838369739       19.5052081811      -11.0959365672  MEMB      215             0.0000000000
     24065       215  POPC      H8X           -11.8773840617       20.2984130730      -11.5987775726  MEMB      215             0.0000000000
     24066       215  POPC      H8Y           -10.5606117716       19.9371418747      -10.3715757156  MEMB      215             0.0000000000
     24067       215  POPC      C39           -12.2078698623       18.6731402571      -10.1331967621  MEMB      215             0.0000000000
     24068       215  POPC      H9X           -13.0352659003       18.3561662694      -10.8034683847  MEMB      215             0.0000000000
     24069       215  POPC      H9Y           -12.7682349174       19.3041467784       -9.4106023112  MEMB      215             0.0000000000
     24070       215  POPC      C310          -11.4192222173       17.5355340396       -9.4717752794  MEMB      215             0.0000000000
     24071       215  POPC      H10X          -10.3826201121       17.9068450935       -9.3237702868  MEMB      215             0.0000000000
     24072       215  POPC      H10Y          -11.3060692805       16.7152735729      -10.2125109708  MEMB      215             0.0000000000
     24073       215  POPC      C311          -11.8431152510       17.0831871926       -7.9905656568  MEMB      215             0.0000000000
     24074       215  POPC      H11X          -10.9770090187       16.4320934264       -7.7450914732  MEMB      215             0.0000000000
     24075       215  POPC      H11Y          -12.7568502319       16.4521127841       -8.0245426556  MEMB      215             0.0000000000
     24076       215  POPC      C312          -11.8341240427       18.1499628211       -6.9127145692  MEMB      215             0.0000000000
     24077       215  POPC      H12X          -12.7697455557       18.7320342467       -7.0545818824  MEMB      215             0.0000000000
     24078       215  POPC      H12Y          -10.9144572432       18.7530584264       -7.0702260568  MEMB      215             0.0000000000
     24079       215  POPC      C313          -11.7190989782       17.6343219846       -5.4569743684  MEMB      215             0.0000000000
     24080       215  POPC      H13X          -10.8234307170       16.9769972825       -5.4521049651  MEMB      215             0.0000000000
     24081       215  POPC      H13Y          -12.5387902215       16.9030120969       -5.2908022851  MEMB      215             0.0000000000
     24082       215  POPC      C314          -11.5445298167       18.6471776213       -4.3440182288  MEMB      215             0.0000000000
     24083       215  POPC      H14X          -11.9568292760       19.6175591196       -4.6942893870  MEMB      215             0.0000000000
     24084       215  POPC      H14Y          -10.4776700988       18.8617061474       -4.1201679057  MEMB      215             0.0000000000
     24085       215  POPC      C315          -12.2510246319       18.1278103633       -3.1363680800  MEMB      215             0.0000000000
     24086       215  POPC      H15X          -11.6881397769       17.2037154689       -2.8843146643  MEMB      215             0.0000000000
     24087       215  POPC      H15Y          -13.2547673648       17.8468824866       -3.5209473895  MEMB      215             0.0000000000
     24088       215  POPC      C316          -12.3171122408       19.0318051425       -1.9598971436  MEMB      215             0.0000000000
     24089       215  POPC      H16X          -12.5683089665       20.0609590161       -2.2946557634  MEMB      215             0.0000000000
     24090       215  POPC      H16Y          -11.4383315809       18.8890523184       -1.2952999666  MEMB      215             0.0000000000
     24091       215  POPC      H16Z          -13.2261644864       18.7364211364       -1.3935987242  MEMB      215             0.0000000000
     24092       216  POPE      N              18.5160940965       -1.2913221263      -20.7518464883  MEMB      216             0.0000000000
     24093       216  POPE      HN1            19.5202044954       -1.2592006455      -21.0207901323  MEMB      216             0.0000000000
     24094       216  POPE      HN2            17.9742901989       -2.0498735551      -21.2129846528  MEMB      216             0.0000000000
     24095       216  POPE      HN3            18.2391547822       -0.3624637831      -21.1288434677  MEMB      216             0.0000000000
     24096       216  POPE      C12            18.4629046228       -1.4509521344      -19.2730050769  MEMB      216             0.0000000000
     24097       216  POPE      H12A           17.3733994514       -1.3510637360      -19.0798172879  MEMB      216             0.0000000000
     24098       216  POPE      H12B           19.0105472040       -0.5701235432      -18.8748222538  MEMB      216             0.0000000000
     24099       216  POPE      C11            19.1767187441       -2.7789541587      -18.9236058052  MEMB      216             0.0000000000
     24100       216  POPE      H11A           18.5978470399       -3.6910123787      -19.1831795307  MEMB      216             0.0000000000
     24101       216  POPE      H11B           19.1492988351       -2.8143701391      -17.8135090028  MEMB      216             0.0000000000
     24102       216  POPE      P              21.7876383644       -2.4921914425      -18.6175085466  MEMB      216             0.0000000000
     24103       216  POPE      O13            21.5626380195       -1.2114730508      -18.0218669897  MEMB      216             0.0000000000
     24104       216  POPE      O14            22.9502976681       -2.5934450850      -19.4988972250  MEMB      216             0.0000000000
     24105       216  POPE      O11            21.9812375296       -3.5407422606      -17.4485925614  MEMB      216             0.0000000000
     24106       216  POPE      O12            20.4871125536       -3.0076522982      -19.4646773422  MEMB      216             0.0000000000
     24107       216  POPE      C1             22.0563828362       -4.9700807583      -17.7211619306  MEMB      216             0.0000000000
     24108       216  POPE      HA             22.8176804628       -5.0777920409      -18.5231252197  MEMB      216             0.0000000000
     24109       216  POPE      HB             21.0673789201       -5.3555707767      -18.0491710688  MEMB      216             0.0000000000
     24110       216  POPE      C2             22.6497004955       -5.7147616416      -16.5367584794  MEMB      216             0.0000000000
     24111       216  POPE      HS             22.4989289583       -6.8134365617      -16.6038574516  MEMB      216             0.0000000000
     24112       216  POPE      O21            21.9680930133       -5.2537589282      -15.2962796092  MEMB      216             0.0000000000
     24113       216  POPE      C21            20.7410533356       -5.6270630451      -15.1180313036  MEMB      216             0.0000000000
     24114       216  POPE      O22            19.9312986469       -6.2313742109      -15.8338847100  MEMB      216             0.0000000000
     24115       216  POPE      C22            20.3655068104       -5.2370385895      -13.6924464023  MEMB      216             0.0000000000
     24116       216  POPE      H2R            20.6483838626       -4.1866062513      -13.4668505825  MEMB      216             0.0000000000
     24117       216  POPE      H2S            20.8728496200       -5.9534931188      -13.0115518137  MEMB      216             0.0000000000
     24118       216  POPE      C3             24.1197873953       -5.5590715208      -16.3763485856  MEMB      216             0.0000000000
     24119       216  POPE      HX             24.6829055487       -6.1543657101      -17.1265774860  MEMB      216             0.0000000000
     24120       216  POPE      HY             24.4697779226       -6.0528584087      -15.4446822601  MEMB      216             0.0000000000
     24121       216  POPE      O31            24.5437604971       -4.1930140299      -16.5694996208  MEMB      216             0.0000000000
     24122       216  POPE      C31            24.6194296443       -3.5052955593      -15.4023028503  MEMB      216             0.0000000000
     24123       216  POPE      O32            24.4524130671       -3.9600069548      -14.2679319242  MEMB      216             0.0000000000
     24124       216  POPE      C32            24.9071707045       -2.0349556017      -15.7153010014  MEMB      216             0.0000000000
     24125       216  POPE      H2X            23.9857565298       -1.4475969748      -15.5144849827  MEMB      216             0.0000000000
     24126       216  POPE      H2Y            25.1616355599       -1.7968150451      -16.7702217053  MEMB      216             0.0000000000
     24127       216  POPE      C23            18.8433961287       -5.5249510142      -13.4024837823  MEMB      216             0.0000000000
     24128       216  POPE      H3R            18.7522639455       -5.5847129058      -12.2968417512  MEMB      216             0.0000000000
     24129       216  POPE      H3S            18.6445905213       -6.5222037511      -13.8500153485  MEMB      216             0.0000000000
     24130       216  POPE      C24            17.7679943568       -4.5671127892      -13.8802006103  MEMB      216             0.0000000000
     24131       216  POPE      H4R            16.8566721341       -4.9263197496      -13.3560031601  MEMB      216             0.0000000000
     24132       216  POPE      H4S            17.8383930406       -4.7121248636      -14.9794442374  MEMB      216             0.0000000000
     24133       216  POPE      C25            18.1386647486       -3.0613969672      -13.6436062829  MEMB      216             0.0000000000
     24134       216  POPE      H5R            17.3220600237       -2.3939431559      -13.9928664650  MEMB      216             0.0000000000
     24135       216  POPE      H5S            19.0066496157       -2.8110372540      -14.2903238087  MEMB      216             0.0000000000
     24136       216  POPE      C26            18.2803983286       -2.5703306833      -12.1801148650  MEMB      216             0.0000000000
     24137       216  POPE      H6R            19.0500537126       -3.2127422084      -11.7013048630  MEMB      216             0.0000000000
     24138       216  POPE      H6S            17.2522066455       -2.6485136797      -11.7665570226  MEMB      216             0.0000000000
     24139       216  POPE      C27            18.8037361720       -1.1603203644      -12.1147390009  MEMB      216             0.0000000000
     24140       216  POPE      H7R            18.0544554946       -0.5269608515      -12.6360407968  MEMB      216             0.0000000000
     24141       216  POPE      H7S            19.7926719019       -1.2242040112      -12.6169802623  MEMB      216             0.0000000000
     24142       216  POPE      C28            18.9356831320       -0.6012360626      -10.6839017815  MEMB      216             0.0000000000
     24143       216  POPE      H8R            19.7364745949        0.1688626816      -10.6825569094  MEMB      216             0.0000000000
     24144       216  POPE      H8S            19.3778271733       -1.3552517267       -9.9981248121  MEMB      216             0.0000000000
     24145       216  POPE      C29            17.6122593539       -0.0543001603      -10.2788851419  MEMB      216             0.0000000000
     24146       216  POPE      H91            17.5827252619        0.9334124182      -10.7621572398  MEMB      216             0.0000000000
     24147       216  POPE      C210           16.6473943907       -0.6250446447       -9.4905110373  MEMB      216             0.0000000000
     24148       216  POPE      H101           15.7770839080       -0.0017601024       -9.2373774142  MEMB      216             0.0000000000
     24149       216  POPE      C211           16.7665543049       -2.0534793981       -8.8250626531  MEMB      216             0.0000000000
     24150       216  POPE      H11R           17.4082704239       -2.5849995467       -9.5599147908  MEMB      216             0.0000000000
     24151       216  POPE      H11S           15.7584935206       -2.5202977777       -8.8104018754  MEMB      216             0.0000000000
     24152       216  POPE      C212           17.5241528429       -2.1017555787       -7.5101521185  MEMB      216             0.0000000000
     24153       216  POPE      H12R           16.8986285657       -1.6451803703       -6.7135471597  MEMB      216             0.0000000000
     24154       216  POPE      H12S           18.4675929423       -1.5221266211       -7.6011027785  MEMB      216             0.0000000000
     24155       216  POPE      C213           17.7905770850       -3.4893269295       -6.9882279513  MEMB      216             0.0000000000
     24156       216  POPE      H13R           18.6687627147       -3.9702994096       -7.4696593944  MEMB      216             0.0000000000
     24157       216  POPE      H13S           16.9543417626       -4.2037586988       -7.1451328493  MEMB      216             0.0000000000
     24158       216  POPE      C214           18.2374240074       -3.4446862855       -5.4503972487  MEMB      216             0.0000000000
     24159       216  POPE      H14R           18.1537460518       -4.4987648767       -5.1094614431  MEMB      216             0.0000000000
     24160       216  POPE      H14S           17.5983580309       -2.7401260122       -4.8763674998  MEMB      216             0.0000000000
     24161       216  POPE      C215           19.6064150422       -2.9041527635       -5.2148171043  MEMB      216             0.0000000000
     24162       216  POPE      H15R           19.6637413398       -1.8568864043       -5.5812426065  MEMB      216             0.0000000000
     24163       216  POPE      H15S           20.3443356124       -3.5244225165       -5.7671388183  MEMB      216             0.0000000000
     24164       216  POPE      C216           20.1229900220       -2.9912840514       -3.7183946791  MEMB      216             0.0000000000
     24165       216  POPE      H16R           21.2339220866       -2.9910042567       -3.7061154036  MEMB      216             0.0000000000
     24166       216  POPE      H16S           19.7415126973       -3.9451999987       -3.2954990568  MEMB      216             0.0000000000
     24167       216  POPE      C217           19.6148175580       -1.8336004652       -2.8229646145  MEMB      216             0.0000000000
     24168       216  POPE      H17R           18.5703458348       -1.8175277035       -3.2013054535  MEMB      216             0.0000000000
     24169       216  POPE      H17S           20.0663993769       -0.8742659171       -3.1547362516  MEMB      216             0.0000000000
     24170       216  POPE      C218           19.6540610043       -1.9510749079       -1.3235608280  MEMB      216             0.0000000000
     24171       216  POPE      H18R           19.2418595925       -2.9415118703       -1.0346912509  MEMB      216             0.0000000000
     24172       216  POPE      H18S           19.0596193788       -1.1290934688       -0.8704533015  MEMB      216             0.0000000000
     24173       216  POPE      H18T           20.7014678709       -1.8804022779       -0.9598792111  MEMB      216             0.0000000000
     24174       216  POPE      C33            25.9454500330       -1.5023637556      -14.7485827892  MEMB      216             0.0000000000
     24175       216  POPE      H3X            26.9098821804       -2.0339127704      -14.8957136418  MEMB      216             0.0000000000
     24176       216  POPE      H3Y            25.5777636985       -1.6719151503      -13.7139912043  MEMB      216             0.0000000000
     24177       216  POPE      C34            26.3078296264       -0.0201330391      -14.9142148726  MEMB      216             0.0000000000
     24178       216  POPE      H4X            26.7430651006        0.0508177635      -15.9339487416  MEMB      216             0.0000000000
     24179       216  POPE      H4Y            27.2063930640        0.2369061171      -14.3135188107  MEMB      216             0.0000000000
     24180       216  POPE      C35            25.1923039781        1.0625752303      -14.6495492564  MEMB      216             0.0000000000
     24181       216  POPE      H5X            24.3636527945        0.8238755467      -15.3500353016  MEMB      216             0.0000000000
     24182       216  POPE      H5Y            25.7567999777        1.9940882452      -14.8685224048  MEMB      216             0.0000000000
     24183       216  POPE      C36            24.6117853693        1.1313198844      -13.2784109749  MEMB      216             0.0000000000
     24184       216  POPE      H6X            24.2415463687        2.1704817887      -13.1465521410  MEMB      216             0.0000000000
     24185       216  POPE      H6Y            25.4932082436        0.8647464495      -12.6568375435  MEMB      216             0.0000000000
     24186       216  POPE      C37            23.4741406053        0.1890968025      -13.0675132016  MEMB      216             0.0000000000
     24187       216  POPE      H7X            23.7438332767       -0.8425104742      -13.3795599935  MEMB      216             0.0000000000
     24188       216  POPE      H7Y            22.6868075011        0.6464578040      -13.7041044542  MEMB      216             0.0000000000
     24189       216  POPE      C38            22.9187535345        0.2708108708      -11.6689692611  MEMB      216             0.0000000000
     24190       216  POPE      H8X            21.8146257227        0.1587731239      -11.7206439809  MEMB      216             0.0000000000
     24191       216  POPE      H8Y            22.9859920029        1.2409455868      -11.1317181848  MEMB      216             0.0000000000
     24192       216  POPE      C39            23.5524949099       -0.6845710127      -10.5857027616  MEMB      216             0.0000000000
     24193       216  POPE      H9X            24.6333321704       -0.4782080835      -10.4323193638  MEMB      216             0.0000000000
     24194       216  POPE      H9Y            23.2893818031       -1.7154658247      -10.9056224987  MEMB      216             0.0000000000
     24195       216  POPE      C310           22.9851182794       -0.4399802635       -9.2133275803  MEMB      216             0.0000000000
     24196       216  POPE      H10X           21.8900055990       -0.5886303188       -9.0995187791  MEMB      216             0.0000000000
     24197       216  POPE      H10Y           23.3756567241        0.5538854801       -8.9066828643  MEMB      216             0.0000000000
     24198       216  POPE      C311           23.5399456741       -1.5398182391       -8.3803515251  MEMB      216             0.0000000000
     24199       216  POPE      H11X           24.5540038084       -1.8384537423       -8.7221465113  MEMB      216             0.0000000000
     24200       216  POPE      H11Y           23.0364483323       -2.5216728162       -8.5098628727  MEMB      216             0.0000000000
     24201       216  POPE      C312           23.7328384265       -1.2188930572       -6.9266853521  MEMB      216             0.0000000000
     24202       216  POPE      H12X           24.3972367059       -0.3291185234       -6.9612878337  MEMB      216             0.0000000000
     24203       216  POPE      H12Y           24.1570708316       -2.0784676323       -6.3650106202  MEMB      216             0.0000000000
     24204       216  POPE      C313           22.4828337350       -0.7133982657       -6.1565937249  MEMB      216             0.0000000000
     24205       216  POPE      H13X           21.9092460988       -1.6589836231       -6.0508274959  MEMB      216             0.0000000000
     24206       216  POPE      H13Y           21.9527824200        0.1232890963       -6.6599043180  MEMB      216             0.0000000000
     24207       216  POPE      C314           22.6898403154       -0.2333120164       -4.6934978525  MEMB      216             0.0000000000
     24208       216  POPE      H14X           21.6692742776       -0.1768878690       -4.2580864613  MEMB      216             0.0000000000
     24209       216  POPE      H14Y           23.0819626035        0.7941766290       -4.8510675390  MEMB      216             0.0000000000
     24210       216  POPE      C315           23.6814675720       -1.1030451494       -3.9085024106  MEMB      216             0.0000000000
     24211       216  POPE      H15X           24.7010378542       -0.9492711523       -4.3222061020  MEMB      216             0.0000000000
     24212       216  POPE      H15Y           23.5912845454       -2.2084334471       -3.9741152590  MEMB      216             0.0000000000
     24213       216  POPE      C316           23.9489933091       -0.7261704621       -2.3986116794  MEMB      216             0.0000000000
     24214       216  POPE      H16X           24.7263178075       -1.4099651001       -1.9954850277  MEMB      216             0.0000000000
     24215       216  POPE      H16Y           22.9792044042       -0.7669086079       -1.8580841412  MEMB      216             0.0000000000
     24216       216  POPE      H16Z           24.3525335010        0.3017654212       -2.2768596661  MEMB      216             0.0000000000
     24217       217  POPE      N              -4.9956092913      -20.8107953992      -19.8604228230  MEMB      217             0.0000000000
     24218       217  POPE      HN1            -4.6518019752      -19.8969213787      -19.5023295603  MEMB      217             0.0000000000
     24219       217  POPE      HN2            -4.4728883259      -21.5301441300      -19.3210711688  MEMB      217             0.0000000000
     24220       217  POPE      HN3            -4.7230866699      -20.8802841300      -20.8616734352  MEMB      217             0.0000000000
     24221       217  POPE      C12            -6.5028325687      -20.8661407572      -19.7017290762  MEMB      217             0.0000000000
     24222       217  POPE      H12A           -6.6861179125      -20.8482760362      -18.6060976030  MEMB      217             0.0000000000
     24223       217  POPE      H12B           -7.0502550524      -21.7600055424      -20.0700435966  MEMB      217             0.0000000000
     24224       217  POPE      C11            -7.2244127275      -19.7742908504      -20.3737684115  MEMB      217             0.0000000000
     24225       217  POPE      H11A           -8.3335928788      -19.7828363314      -20.3107811360  MEMB      217             0.0000000000
     24226       217  POPE      H11B           -7.0144263399      -19.6442805592      -21.4569692214  MEMB      217             0.0000000000
     24227       217  POPE      P              -7.4123076837      -17.9426208652      -18.3973787962  MEMB      217             0.0000000000
     24228       217  POPE      O13            -8.7648151130      -17.4392627203      -18.6539980840  MEMB      217             0.0000000000
     24229       217  POPE      O14            -6.4706664666      -16.8928954478      -17.9149558268  MEMB      217             0.0000000000
     24230       217  POPE      O11            -7.4988778177      -19.1339665059      -17.3607345275  MEMB      217             0.0000000000
     24231       217  POPE      O12            -6.7496760663      -18.5651589231      -19.7370124739  MEMB      217             0.0000000000
     24232       217  POPE      C1             -7.8531936553      -18.8326188105      -15.9764385522  MEMB      217             0.0000000000
     24233       217  POPE      HA             -8.9134876444      -19.1474591187      -15.8716846040  MEMB      217             0.0000000000
     24234       217  POPE      HB             -7.6764819408      -17.7607042789      -15.7438593063  MEMB      217             0.0000000000
     24235       217  POPE      C2             -6.8500027358      -19.5128123325      -14.9431415562  MEMB      217             0.0000000000
     24236       217  POPE      HS             -7.3451243950      -19.4911795292      -13.9488035984  MEMB      217             0.0000000000
     24237       217  POPE      O21            -5.5870833850      -18.7454997289      -14.8361109020  MEMB      217             0.0000000000
     24238       217  POPE      C21            -5.7510892887      -17.5423539521      -14.1422279452  MEMB      217             0.0000000000
     24239       217  POPE      O22            -6.6731633702      -17.2316610584      -13.4435297542  MEMB      217             0.0000000000
     24240       217  POPE      C22            -4.6381127948      -16.6057467419      -14.5643949783  MEMB      217             0.0000000000
     24241       217  POPE      H2R            -5.0373908694      -15.8135072614      -15.2331662908  MEMB      217             0.0000000000
     24242       217  POPE      H2S            -3.8897819446      -17.1259338889      -15.1997906329  MEMB      217             0.0000000000
     24243       217  POPE      C3             -6.5827208349      -20.9859889484      -15.2713828409  MEMB      217             0.0000000000
     24244       217  POPE      HX             -5.9075869325      -21.1304283357      -16.1418152085  MEMB      217             0.0000000000
     24245       217  POPE      HY             -7.5621002049      -21.4741179019      -15.4633916305  MEMB      217             0.0000000000
     24246       217  POPE      O31            -5.8773549795      -21.5994630060      -14.1772928626  MEMB      217             0.0000000000
     24247       217  POPE      C31            -6.6199601539      -21.9073300813      -13.0246198032  MEMB      217             0.0000000000
     24248       217  POPE      O32            -7.7539013189      -21.6450524727      -12.8075220431  MEMB      217             0.0000000000
     24249       217  POPE      C32            -5.6153337409      -22.5529339450      -12.1109830302  MEMB      217             0.0000000000
     24250       217  POPE      H2X            -5.0156820906      -23.1565194331      -12.8254224893  MEMB      217             0.0000000000
     24251       217  POPE      H2Y            -6.0956145045      -23.2691779117      -11.4105218898  MEMB      217             0.0000000000
     24252       217  POPE      C23            -4.0802112390      -15.9718640008      -13.2709860361  MEMB      217             0.0000000000
     24253       217  POPE      H3R            -4.9373795135      -15.4928798480      -12.7512188730  MEMB      217             0.0000000000
     24254       217  POPE      H3S            -3.4299404898      -15.1100741972      -13.5332587602  MEMB      217             0.0000000000
     24255       217  POPE      C24            -3.2001476395      -16.9017093325      -12.3114989761  MEMB      217             0.0000000000
     24256       217  POPE      H4R            -2.2218051860      -17.2192565884      -12.7314162569  MEMB      217             0.0000000000
     24257       217  POPE      H4S            -3.8115837142      -17.8293226945      -12.3107922152  MEMB      217             0.0000000000
     24258       217  POPE      C25            -3.0781352364      -16.3949180535      -10.9072490154  MEMB      217             0.0000000000
     24259       217  POPE      H5R            -2.6731366920      -15.3605075364      -10.9243480592  MEMB      217             0.0000000000
     24260       217  POPE      H5S            -2.3666152566      -16.9882333832      -10.2940298113  MEMB      217             0.0000000000
     24261       217  POPE      C26            -4.4480150684      -16.5485535370      -10.1889840443  MEMB      217             0.0000000000
     24262       217  POPE      H6R            -4.8350304057      -17.5899173339      -10.1990517261  MEMB      217             0.0000000000
     24263       217  POPE      H6S            -5.2616896660      -16.0152835357      -10.7255268962  MEMB      217             0.0000000000
     24264       217  POPE      C27            -4.5544100195      -15.9485321092       -8.7465936616  MEMB      217             0.0000000000
     24265       217  POPE      H7R            -5.6558520917      -15.8722644829       -8.6227806189  MEMB      217             0.0000000000
     24266       217  POPE      H7S            -4.2090822108      -14.9022903066       -8.6035973760  MEMB      217             0.0000000000
     24267       217  POPE      C28            -3.9015630877      -16.8096357823       -7.5928966272  MEMB      217             0.0000000000
     24268       217  POPE      H8R            -2.8185743457      -16.8700380956       -7.8333295918  MEMB      217             0.0000000000
     24269       217  POPE      H8S            -4.1990933316      -17.8793596089       -7.6314672788  MEMB      217             0.0000000000
     24270       217  POPE      C29            -4.0093289839      -16.0871081527       -6.2963434251  MEMB      217             0.0000000000
     24271       217  POPE      H91            -3.2460948898      -15.3864121575       -5.9268863587  MEMB      217             0.0000000000
     24272       217  POPE      C210           -4.8988288393      -16.4234908474       -5.4028844034  MEMB      217             0.0000000000
     24273       217  POPE      H101           -4.8927944048      -16.0320175164       -4.3749192454  MEMB      217             0.0000000000
     24274       217  POPE      C211           -5.9972381154      -17.4576007535       -5.5665137131  MEMB      217             0.0000000000
     24275       217  POPE      H11R           -5.9019814308      -18.0762194745       -6.4844231487  MEMB      217             0.0000000000
     24276       217  POPE      H11S           -6.9936646467      -16.9746465437       -5.6571256548  MEMB      217             0.0000000000
     24277       217  POPE      C212           -5.9350220777      -18.4843812670       -4.4705459794  MEMB      217             0.0000000000
     24278       217  POPE      H12R           -6.4420970748      -18.1741956393       -3.5319409612  MEMB      217             0.0000000000
     24279       217  POPE      H12S           -4.9185931585      -18.7965731271       -4.1484755002  MEMB      217             0.0000000000
     24280       217  POPE      C213           -6.7814891580      -19.6346916149       -4.9071235934  MEMB      217             0.0000000000
     24281       217  POPE      H13R           -6.5025644266      -20.0791733685       -5.8863873672  MEMB      217             0.0000000000
     24282       217  POPE      H13S           -7.8426234749      -19.3263685598       -5.0222417793  MEMB      217             0.0000000000
     24283       217  POPE      C214           -6.7608628391      -20.8386073740       -3.8770793854  MEMB      217             0.0000000000
     24284       217  POPE      H14R           -7.3754455345      -21.6451832350       -4.3310002103  MEMB      217             0.0000000000
     24285       217  POPE      H14S           -7.1550682409      -20.4702882443       -2.9058618228  MEMB      217             0.0000000000
     24286       217  POPE      C215           -5.4042808511      -21.5817937541       -3.8254994987  MEMB      217             0.0000000000
     24287       217  POPE      H15R           -4.5899059168      -20.8301298316       -3.9037030936  MEMB      217             0.0000000000
     24288       217  POPE      H15S           -5.3915316416      -22.2154025676       -4.7380230212  MEMB      217             0.0000000000
     24289       217  POPE      C216           -5.1950838196      -22.2846213456       -2.5067988332  MEMB      217             0.0000000000
     24290       217  POPE      H16R           -4.4187230611      -23.0781055586       -2.5511584443  MEMB      217             0.0000000000
     24291       217  POPE      H16S           -6.1546231890      -22.8404020123       -2.4381473873  MEMB      217             0.0000000000
     24292       217  POPE      C217           -4.9452348403      -21.3239609725       -1.3894209029  MEMB      217             0.0000000000
     24293       217  POPE      H17R           -5.7546267753      -20.5632502692       -1.3664934192  MEMB      217             0.0000000000
     24294       217  POPE      H17S           -3.9468642024      -20.9026423968       -1.6345082761  MEMB      217             0.0000000000
     24295       217  POPE      C218           -4.9019680510      -22.0011004296        0.0048461216  MEMB      217             0.0000000000
     24296       217  POPE      H18R           -4.6003329529      -21.2153284880        0.7300355718  MEMB      217             0.0000000000
     24297       217  POPE      H18S           -4.0814617980      -22.7501592506        0.0057612820  MEMB      217             0.0000000000
     24298       217  POPE      H18T           -5.8111473836      -22.5726982681        0.2894324769  MEMB      217             0.0000000000
     24299       217  POPE      C33            -4.7003289934      -21.6371038248      -11.3423097426  MEMB      217             0.0000000000
     24300       217  POPE      H3X            -4.1930917538      -20.8197213623      -11.8981130198  MEMB      217             0.0000000000
     24301       217  POPE      H3Y            -3.9171025320      -22.2737109433      -10.8779732948  MEMB      217             0.0000000000
     24302       217  POPE      C34            -5.4982693569      -21.1192237118      -10.0318296425  MEMB      217             0.0000000000
     24303       217  POPE      H4X            -5.9246645734      -22.0021313194       -9.5093528532  MEMB      217             0.0000000000
     24304       217  POPE      H4Y            -6.1553202784      -20.3317926496      -10.4590969415  MEMB      217             0.0000000000
     24305       217  POPE      C35            -4.7387814995      -20.3844964868       -8.8736166457  MEMB      217             0.0000000000
     24306       217  POPE      H5X            -5.4979530606      -19.8782426790       -8.2398293516  MEMB      217             0.0000000000
     24307       217  POPE      H5Y            -4.0934741241      -19.6024877804       -9.3278869524  MEMB      217             0.0000000000
     24308       217  POPE      C36            -3.9329891040      -21.3835485968       -8.0219670742  MEMB      217             0.0000000000
     24309       217  POPE      H6X            -3.1073353615      -21.7169929079       -8.6863702350  MEMB      217             0.0000000000
     24310       217  POPE      H6Y            -4.6165218309      -22.1576109983       -7.6121728799  MEMB      217             0.0000000000
     24311       217  POPE      C37            -3.1834238179      -20.7568007235       -6.7526730728  MEMB      217             0.0000000000
     24312       217  POPE      H7X            -2.7030724205      -21.5256918196       -6.1104966346  MEMB      217             0.0000000000
     24313       217  POPE      H7Y            -4.0225244619      -20.3567474284       -6.1442420304  MEMB      217             0.0000000000
     24314       217  POPE      C38            -1.9983776946      -19.8649569200       -7.1257283103  MEMB      217             0.0000000000
     24315       217  POPE      H8X            -2.3539133210      -19.2021487192       -7.9434079595  MEMB      217             0.0000000000
     24316       217  POPE      H8Y            -1.1275650859      -20.4331392377       -7.5171040831  MEMB      217             0.0000000000
     24317       217  POPE      C39            -1.4785021945      -18.8693530023       -6.0926698319  MEMB      217             0.0000000000
     24318       217  POPE      H9X            -2.3405481056      -18.1744287827       -6.0016858580  MEMB      217             0.0000000000
     24319       217  POPE      H9Y            -0.6030499013      -18.2595095809       -6.4025010626  MEMB      217             0.0000000000
     24320       217  POPE      C310           -1.2803125733      -19.4962959782       -4.7147801457  MEMB      217             0.0000000000
     24321       217  POPE      H10X           -0.5810683869      -20.3287534457       -4.9436755916  MEMB      217             0.0000000000
     24322       217  POPE      H10Y           -2.2471765034      -19.8127201449       -4.2682701365  MEMB      217             0.0000000000
     24323       217  POPE      C311           -0.4206120058      -18.6459345542       -3.7567205225  MEMB      217             0.0000000000
     24324       217  POPE      H11X            0.5907058033      -18.4541993401       -4.1748052204  MEMB      217             0.0000000000
     24325       217  POPE      H11Y           -0.3741101456      -19.0323904149       -2.7161376748  MEMB      217             0.0000000000
     24326       217  POPE      C312           -1.0743126651      -17.2698866554       -3.4451701542  MEMB      217             0.0000000000
     24327       217  POPE      H12X           -1.3125347203      -16.6418117270       -4.3300955201  MEMB      217             0.0000000000
     24328       217  POPE      H12Y           -0.3283039769      -16.7999723390       -2.7691729596  MEMB      217             0.0000000000
     24329       217  POPE      C313           -2.3572899336      -17.4323909400       -2.7111738055  MEMB      217             0.0000000000
     24330       217  POPE      H13X           -2.2751782924      -18.0099855513       -1.7656784667  MEMB      217             0.0000000000
     24331       217  POPE      H13Y           -3.1102066295      -17.9205094752       -3.3662916841  MEMB      217             0.0000000000
     24332       217  POPE      C314           -2.8907337201      -16.0788874073       -2.3664513881  MEMB      217             0.0000000000
     24333       217  POPE      H14X           -3.9965993817      -16.1382973892       -2.2778379719  MEMB      217             0.0000000000
     24334       217  POPE      H14Y           -2.7063077233      -15.3709425790       -3.2025871586  MEMB      217             0.0000000000
     24335       217  POPE      C315           -2.2582075828      -15.5066402957       -1.1407975878  MEMB      217             0.0000000000
     24336       217  POPE      H15X           -1.1949903320      -15.2485351147       -1.3338570423  MEMB      217             0.0000000000
     24337       217  POPE      H15Y           -2.0770709810      -16.2835445664       -0.3675379802  MEMB      217             0.0000000000
     24338       217  POPE      C316           -2.9874910022      -14.3353044308       -0.5681187002  MEMB      217             0.0000000000
     24339       217  POPE      H16X           -3.9693108034      -14.7147728308       -0.2126549820  MEMB      217             0.0000000000
     24340       217  POPE      H16Y           -3.1228371717      -13.6777568888       -1.4533487237  MEMB      217             0.0000000000
     24341       217  POPE      H16Z           -2.4907236624      -13.7784971108        0.2549909033  MEMB      217             0.0000000000
     24342       218  POPE      N              15.1213552711        7.1935291222      -20.8265240933  MEMB      218             0.0000000000
     24343       218  POPE      HN1            14.6180958187        8.0382417987      -21.1653319551  MEMB      218             0.0000000000
     24344       218  POPE      HN2            15.0051296650        6.3598115601      -21.4372666021  MEMB      218             0.0000000000
     24345       218  POPE      HN3            14.7459270134        7.0216973424      -19.8719940638  MEMB      218             0.0000000000
     24346       218  POPE      C12            16.5739332006        7.5881165833      -20.7810056458  MEMB      218             0.0000000000
     24347       218  POPE      H12A           16.7800144432        8.2766491510      -19.9337898791  MEMB      218             0.0000000000
     24348       218  POPE      H12B           16.9610934679        8.0257884320      -21.7259241446  MEMB      218             0.0000000000
     24349       218  POPE      C11            17.5878811245        6.3395579521      -20.5147035193  MEMB      218             0.0000000000
     24350       218  POPE      H11A           18.6508086650        6.6613248734      -20.5458825821  MEMB      218             0.0000000000
     24351       218  POPE      H11B           17.6008219324        5.6323550508      -21.3714517064  MEMB      218             0.0000000000
     24352       218  POPE      P              17.7531768878        5.9353641588      -17.9453392989  MEMB      218             0.0000000000
     24353       218  POPE      O13            16.8803135949        6.9614233399      -17.3661898909  MEMB      218             0.0000000000
     24354       218  POPE      O14            19.1915055856        6.1511537402      -17.9736168393  MEMB      218             0.0000000000
     24355       218  POPE      O11            17.4657190466        4.6353348648      -17.1943592302  MEMB      218             0.0000000000
     24356       218  POPE      O12            17.1238800381        5.5879681947      -19.3982614833  MEMB      218             0.0000000000
     24357       218  POPE      C1             17.5082384846        3.3990150790      -17.9460272964  MEMB      218             0.0000000000
     24358       218  POPE      HA             18.5525271451        3.1627759489      -18.2426303223  MEMB      218             0.0000000000
     24359       218  POPE      HB             17.0105580507        3.5184097059      -18.9321206830  MEMB      218             0.0000000000
     24360       218  POPE      C2             16.9886280172        2.1723085844      -17.2000013683  MEMB      218             0.0000000000
     24361       218  POPE      HS             16.6380857182        1.4985997324      -18.0109006579  MEMB      218             0.0000000000
     24362       218  POPE      O21            15.8780364116        2.4383657655      -16.3346855534  MEMB      218             0.0000000000
     24363       218  POPE      C21            14.9532346768        3.3562050767      -16.5813132994  MEMB      218             0.0000000000
     24364       218  POPE      O22            14.7134786555        3.9109461977      -17.6313086839  MEMB      218             0.0000000000
     24365       218  POPE      C22            14.2458117698        3.6294352597      -15.2408301291  MEMB      218             0.0000000000
     24366       218  POPE      H2R            14.8462826988        3.2278151585      -14.3967582299  MEMB      218             0.0000000000
     24367       218  POPE      H2S            13.2695815826        3.1108002259      -15.1298648575  MEMB      218             0.0000000000
     24368       218  POPE      C3             18.0699614321        1.4206151317      -16.4134080845  MEMB      218             0.0000000000
     24369       218  POPE      HX             18.8046789511        1.0870259870      -17.1771026967  MEMB      218             0.0000000000
     24370       218  POPE      HY             17.6155694038        0.4745312468      -16.0490255627  MEMB      218             0.0000000000
     24371       218  POPE      O31            18.7513878753        2.2547740648      -15.4748049482  MEMB      218             0.0000000000
     24372       218  POPE      C31            18.2375432552        2.2285093535      -14.2005660457  MEMB      218             0.0000000000
     24373       218  POPE      O32            17.3612240032        1.5390191041      -13.7903717231  MEMB      218             0.0000000000
     24374       218  POPE      C32            18.8352941720        3.3539384449      -13.3341254796  MEMB      218             0.0000000000
     24375       218  POPE      H2X            19.7598370387        3.6730405385      -13.8611126760  MEMB      218             0.0000000000
     24376       218  POPE      H2Y            19.2052608012        2.8282348033      -12.4279900199  MEMB      218             0.0000000000
     24377       218  POPE      C23            13.9480017424        5.1094982120      -14.9938017342  MEMB      218             0.0000000000
     24378       218  POPE      H3R            13.2707110897        5.5328918562      -15.7660297201  MEMB      218             0.0000000000
     24379       218  POPE      H3S            14.8780231461        5.7099928308      -14.9000601758  MEMB      218             0.0000000000
     24380       218  POPE      C24            13.3715091671        5.4182335460      -13.6450666124  MEMB      218             0.0000000000
     24381       218  POPE      H4R            14.0395064178        4.8908386133      -12.9309549191  MEMB      218             0.0000000000
     24382       218  POPE      H4S            12.3876455725        4.9238992371      -13.4968541064  MEMB      218             0.0000000000
     24383       218  POPE      C25            13.1161269442        6.8453967215      -13.1763139861  MEMB      218             0.0000000000
     24384       218  POPE      H5R            12.2025746920        7.2921249463      -13.6237257148  MEMB      218             0.0000000000
     24385       218  POPE      H5S            13.8646768944        7.5361056314      -13.6200650225  MEMB      218             0.0000000000
     24386       218  POPE      C26            12.9677983124        6.9986174984      -11.6679327291  MEMB      218             0.0000000000
     24387       218  POPE      H6R            13.7631879142        6.4921073115      -11.0804601982  MEMB      218             0.0000000000
     24388       218  POPE      H6S            12.0319970446        6.5619756935      -11.2581265906  MEMB      218             0.0000000000
     24389       218  POPE      C27            13.0024606492        8.4666076322      -11.2528683774  MEMB      218             0.0000000000
     24390       218  POPE      H7R            11.9503667571        8.8217908721      -11.2884348982  MEMB      218             0.0000000000
     24391       218  POPE      H7S            13.6515682777        9.0904926931      -11.9038274093  MEMB      218             0.0000000000
     24392       218  POPE      C28            13.4920306233        8.7119015124       -9.8095286515  MEMB      218             0.0000000000
     24393       218  POPE      H8R            13.2773147474        9.7751248346       -9.5691656345  MEMB      218             0.0000000000
     24394       218  POPE      H8S            14.5997692142        8.6358407275       -9.7714354995  MEMB      218             0.0000000000
     24395       218  POPE      C29            12.7812368598        7.9021215337       -8.7690618615  MEMB      218             0.0000000000
     24396       218  POPE      H91            11.8562913151        8.3794829136       -8.4132510497  MEMB      218             0.0000000000
     24397       218  POPE      C210           13.1824768150        6.7933178719       -8.1147378836  MEMB      218             0.0000000000
     24398       218  POPE      H101           12.4424274200        6.3332135484       -7.4434470208  MEMB      218             0.0000000000
     24399       218  POPE      C211           14.4820295712        5.9630623073       -8.2985137576  MEMB      218             0.0000000000
     24400       218  POPE      H11R           14.9647808576        6.0343254865       -9.2966093927  MEMB      218             0.0000000000
     24401       218  POPE      H11S           14.3179364915        4.8823511916       -8.0998732137  MEMB      218             0.0000000000
     24402       218  POPE      C212           15.6525150887        6.3593316418       -7.3849392877  MEMB      218             0.0000000000
     24403       218  POPE      H12R           15.4385275006        6.4712534003       -6.3005026617  MEMB      218             0.0000000000
     24404       218  POPE      H12S           16.0749177604        7.2695998748       -7.8617083158  MEMB      218             0.0000000000
     24405       218  POPE      C213           16.8737221945        5.3915870029       -7.5420795230  MEMB      218             0.0000000000
     24406       218  POPE      H13R           17.8622489444        5.8986090388       -7.5501082508  MEMB      218             0.0000000000
     24407       218  POPE      H13S           16.8073970139        4.9586845429       -8.5631168253  MEMB      218             0.0000000000
     24408       218  POPE      C214           16.8619776789        4.1528865272       -6.6451657606  MEMB      218             0.0000000000
     24409       218  POPE      H14R           17.6915612064        3.5022449649       -6.9955625547  MEMB      218             0.0000000000
     24410       218  POPE      H14S           15.9168056528        3.6109845355       -6.8626812460  MEMB      218             0.0000000000
     24411       218  POPE      C215           16.9041385152        4.3377841100       -5.1147924136  MEMB      218             0.0000000000
     24412       218  POPE      H15R           15.9402644761        4.8194258452       -4.8440724997  MEMB      218             0.0000000000
     24413       218  POPE      H15S           17.7976965708        4.9268626840       -4.8166954448  MEMB      218             0.0000000000
     24414       218  POPE      C216           17.0666210486        2.9889181100       -4.3077196814  MEMB      218             0.0000000000
     24415       218  POPE      H16R           18.1133179928        2.7305738211       -4.5760553440  MEMB      218             0.0000000000
     24416       218  POPE      H16S           16.3609665511        2.2455552871       -4.7364202196  MEMB      218             0.0000000000
     24417       218  POPE      C217           17.0443248056        3.2517400724       -2.8201057111  MEMB      218             0.0000000000
     24418       218  POPE      H17R           17.0342191001        2.2800728001       -2.2815133320  MEMB      218             0.0000000000
     24419       218  POPE      H17S           16.1063205047        3.8005237372       -2.5892259181  MEMB      218             0.0000000000
     24420       218  POPE      C218           18.0407147522        4.2427470977       -2.2015685546  MEMB      218             0.0000000000
     24421       218  POPE      H18R           17.5420917380        4.6689481598       -1.3048820229  MEMB      218             0.0000000000
     24422       218  POPE      H18S           18.0894764754        5.0694746018       -2.9421527208  MEMB      218             0.0000000000
     24423       218  POPE      H18T           19.0836358870        4.0072410662       -1.8996198333  MEMB      218             0.0000000000
     24424       218  POPE      C33            17.7964715685        4.4721478297      -13.0107169812  MEMB      218             0.0000000000
     24425       218  POPE      H3X            17.0585827832        4.0287585139      -12.3084013298  MEMB      218             0.0000000000
     24426       218  POPE      H3Y            17.2613826838        4.8817667544      -13.8940141186  MEMB      218             0.0000000000
     24427       218  POPE      C34            18.3726538285        5.6040103205      -12.1806081702  MEMB      218             0.0000000000
     24428       218  POPE      H4X            19.1686284724        5.9680169177      -12.8648918094  MEMB      218             0.0000000000
     24429       218  POPE      H4Y            18.8982265107        5.4098822556      -11.2212289921  MEMB      218             0.0000000000
     24430       218  POPE      C35            17.3885537666        6.6986497768      -11.9596960800  MEMB      218             0.0000000000
     24431       218  POPE      H5X            16.4580100076        6.3028667155      -11.4995167815  MEMB      218             0.0000000000
     24432       218  POPE      H5Y            17.1801331284        7.1993173685      -12.9293425809  MEMB      218             0.0000000000
     24433       218  POPE      C36            17.8363198217        7.6689485090      -10.8997564413  MEMB      218             0.0000000000
     24434       218  POPE      H6X            17.7774755673        7.2540864533       -9.8708013022  MEMB      218             0.0000000000
     24435       218  POPE      H6Y            17.0622199723        8.4454290563      -11.0791117285  MEMB      218             0.0000000000
     24436       218  POPE      C37            19.2499019101        8.2289511319      -10.9674078381  MEMB      218             0.0000000000
     24437       218  POPE      H7X            19.4952101713        8.3668823270      -12.0421726767  MEMB      218             0.0000000000
     24438       218  POPE      H7Y            19.9367172584        7.5760880828      -10.3874292511  MEMB      218             0.0000000000
     24439       218  POPE      C38            19.4732814156        9.5366425404      -10.3098542042  MEMB      218             0.0000000000
     24440       218  POPE      H8X            18.7575217993       10.2804808394      -10.7206017566  MEMB      218             0.0000000000
     24441       218  POPE      H8Y            20.4383285193        9.9344543667      -10.6903158378  MEMB      218             0.0000000000
     24442       218  POPE      C39            19.3389505800        9.4983639920       -8.7209363611  MEMB      218             0.0000000000
     24443       218  POPE      H9X            18.3936411121        9.0542664307       -8.3421382281  MEMB      218             0.0000000000
     24444       218  POPE      H9Y            19.2561015354       10.5190204600       -8.2899877547  MEMB      218             0.0000000000
     24445       218  POPE      C310           20.5482028647        8.8673304944       -8.1027433814  MEMB      218             0.0000000000
     24446       218  POPE      H10X           21.3965481371        9.4907519185       -8.4576753177  MEMB      218             0.0000000000
     24447       218  POPE      H10Y           20.5974969588        7.8144584946       -8.4539579980  MEMB      218             0.0000000000
     24448       218  POPE      C311           20.6495822134        8.9541500219       -6.5283828751  MEMB      218             0.0000000000
     24449       218  POPE      H11X           20.5134300174       10.0476198548       -6.3865839686  MEMB      218             0.0000000000
     24450       218  POPE      H11Y           21.6841694618        8.6825810728       -6.2280490618  MEMB      218             0.0000000000
     24451       218  POPE      C312           19.6502252420        8.1323336371       -5.7967314396  MEMB      218             0.0000000000
     24452       218  POPE      H12X           20.1433510607        7.4879491154       -5.0378397234  MEMB      218             0.0000000000
     24453       218  POPE      H12Y           19.0287289447        7.5658272599       -6.5227711100  MEMB      218             0.0000000000
     24454       218  POPE      C313           18.5046256483        8.9315403098       -5.0346789764  MEMB      218             0.0000000000
     24455       218  POPE      H13X           18.0444157830        8.0926146345       -4.4701154770  MEMB      218             0.0000000000
     24456       218  POPE      H13Y           17.7210069683        9.3890889412       -5.6757030884  MEMB      218             0.0000000000
     24457       218  POPE      C314           19.1496953807       10.0823083816       -4.2253148477  MEMB      218             0.0000000000
     24458       218  POPE      H14X           19.2554352134       10.9839311267       -4.8657968292  MEMB      218             0.0000000000
     24459       218  POPE      H14Y           20.1155818407        9.6304926258       -3.9134702914  MEMB      218             0.0000000000
     24460       218  POPE      C315           18.4908620944       10.2240310563       -2.8126093018  MEMB      218             0.0000000000
     24461       218  POPE      H15X           18.9640622814       11.1305734936       -2.3783474616  MEMB      218             0.0000000000
     24462       218  POPE      H15Y           18.8160788067        9.4255633359       -2.1118933403  MEMB      218             0.0000000000
     24463       218  POPE      C316           16.9988033658       10.2686759577       -2.7732238435  MEMB      218             0.0000000000
     24464       218  POPE      H16X           16.6658244500       10.5494824752       -1.7511698071  MEMB      218             0.0000000000
     24465       218  POPE      H16Y           16.5429566846        9.2670477380       -2.9257550091  MEMB      218             0.0000000000
     24466       218  POPE      H16Z           16.5897242904       11.0506439389       -3.4481326733  MEMB      218             0.0000000000
     24467       219  POPC      N              19.2136236011       -9.0181084213      -20.0580904772  MEMB      219             0.0000000000
     24468       219  POPC      C12            19.1047132922       -8.8621504464      -18.5187627044  MEMB      219             0.0000000000
     24469       219  POPC      H12A           19.1672974114       -7.8435886156      -18.1651876589  MEMB      219             0.0000000000
     24470       219  POPC      H12B           19.8717991423       -9.5563102603      -18.2087284118  MEMB      219             0.0000000000
     24471       219  POPC      C13            18.2168950690       -8.1671049290      -20.7917618760  MEMB      219             0.0000000000
     24472       219  POPC      H13A           17.2102279359       -8.4188003335      -20.4923112380  MEMB      219             0.0000000000
     24473       219  POPC      H13B           18.3067191224       -7.1366434020      -20.4811480575  MEMB      219             0.0000000000
     24474       219  POPC      H13C           18.3709896062       -8.2834306529      -21.8543640053  MEMB      219             0.0000000000
     24475       219  POPC      C14            20.4796800764       -8.4851750268      -20.4050454780  MEMB      219             0.0000000000
     24476       219  POPC      H14A           20.5983897031       -7.4195187823      -20.2758740292  MEMB      219             0.0000000000
     24477       219  POPC      H14B           21.2860614602       -9.0160841825      -19.9210162140  MEMB      219             0.0000000000
     24478       219  POPC      H14C           20.6406887557       -8.6081648698      -21.4658704429  MEMB      219             0.0000000000
     24479       219  POPC      C15            19.1597393997      -10.3899386419      -20.4962439279  MEMB      219             0.0000000000
     24480       219  POPC      H15A           19.5416314604      -10.4210281809      -21.5059924293  MEMB      219             0.0000000000
     24481       219  POPC      H15B           18.1447702030      -10.7379866427      -20.3733611060  MEMB      219             0.0000000000
     24482       219  POPC      H15C           19.7402928941      -11.0093698204      -19.8286643904  MEMB      219             0.0000000000
     24483       219  POPC      C11            17.8555128274       -9.4075060612      -17.7799445363  MEMB      219             0.0000000000
     24484       219  POPC      H11A           18.1068309128       -9.0347312645      -16.7639725416  MEMB      219             0.0000000000
     24485       219  POPC      H11B           17.9338269015      -10.5154703222      -17.8045015605  MEMB      219             0.0000000000
     24486       219  POPC      P              15.4144348655      -10.0136060056      -18.2604216645  MEMB      219             0.0000000000
     24487       219  POPC      O13            15.7006700477      -11.0196753203      -19.3023587235  MEMB      219             0.0000000000
     24488       219  POPC      O14            14.1549984184       -9.3074886446      -18.3774370242  MEMB      219             0.0000000000
     24489       219  POPC      O12            16.5520356237       -8.9204373907      -18.2044361378  MEMB      219             0.0000000000
     24490       219  POPC      O11            15.5752649771      -10.7540267975      -16.8054974501  MEMB      219             0.0000000000
     24491       219  POPC      C1             15.0247204581      -10.1692185587      -15.6314973077  MEMB      219             0.0000000000
     24492       219  POPC      HA             14.1075548896      -10.6892957537      -15.2812855440  MEMB      219             0.0000000000
     24493       219  POPC      HB             14.7636017504       -9.0924054023      -15.7128066335  MEMB      219             0.0000000000
     24494       219  POPC      C2             16.0928408914      -10.2333106252      -14.5474398254  MEMB      219             0.0000000000
     24495       219  POPC      HS             17.0203320463       -9.8540121440      -15.0272458742  MEMB      219             0.0000000000
     24496       219  POPC      O21            16.1936336695      -11.5608889588      -14.1912447068  MEMB      219             0.0000000000
     24497       219  POPC      C21            17.4309767402      -11.9891262504      -13.7631446090  MEMB      219             0.0000000000
     24498       219  POPC      O22            18.4730387319      -11.3980065999      -13.9354811820  MEMB      219             0.0000000000
     24499       219  POPC      C22            17.2579037162      -13.3841084399      -13.1385255741  MEMB      219             0.0000000000
     24500       219  POPC      H2R            17.7484234375      -14.0709556365      -13.8609881558  MEMB      219             0.0000000000
     24501       219  POPC      H2S            16.1917504972      -13.6740383925      -13.0219972693  MEMB      219             0.0000000000
     24502       219  POPC      C3             15.6536039507       -9.3953821240      -13.3359329912  MEMB      219             0.0000000000
     24503       219  POPC      HX             14.8954607764      -10.1043906192      -12.9398938138  MEMB      219             0.0000000000
     24504       219  POPC      HY             15.2068158212       -8.4091518979      -13.5850339021  MEMB      219             0.0000000000
     24505       219  POPC      O31            16.7285028715       -9.2586834191      -12.4648302049  MEMB      219             0.0000000000
     24506       219  POPC      C31            17.5040209559       -8.1794043962      -12.4544195088  MEMB      219             0.0000000000
     24507       219  POPC      O32            17.3238956871       -7.1766709559      -13.1505892468  MEMB      219             0.0000000000
     24508       219  POPC      C32            18.5345394796       -8.3026401769      -11.3622477344  MEMB      219             0.0000000000
     24509       219  POPC      H2X            19.3760169328       -7.5989643318      -11.5385338881  MEMB      219             0.0000000000
     24510       219  POPC      H2Y            18.9645448609       -9.3257442843      -11.4139611122  MEMB      219             0.0000000000
     24511       219  POPC      C23            18.0709558919      -13.4867728765      -11.7820895749  MEMB      219             0.0000000000
     24512       219  POPC      H3R            17.8402222789      -12.6562063323      -11.0812028096  MEMB      219             0.0000000000
     24513       219  POPC      H3S            19.1449711354      -13.3950448364      -12.0511590469  MEMB      219             0.0000000000
     24514       219  POPC      C24            17.8593160331      -14.7612284148      -11.0225081914  MEMB      219             0.0000000000
     24515       219  POPC      H4R            18.5777839499      -15.4470248389      -11.5203116452  MEMB      219             0.0000000000
     24516       219  POPC      H4S            16.8313622226      -15.1471264340      -11.1919603009  MEMB      219             0.0000000000
     24517       219  POPC      C25            17.9979025684      -14.7562681602       -9.5200755611  MEMB      219             0.0000000000
     24518       219  POPC      H5R            18.9726673840      -14.3724355320       -9.1501744259  MEMB      219             0.0000000000
     24519       219  POPC      H5S            17.9337925575      -15.8080340846       -9.1679398131  MEMB      219             0.0000000000
     24520       219  POPC      C26            16.7730583356      -14.0718741440       -8.8423297055  MEMB      219             0.0000000000
     24521       219  POPC      H6R            15.8653243553      -14.6091579988       -9.1911363761  MEMB      219             0.0000000000
     24522       219  POPC      H6S            16.8431266328      -12.9806125094       -9.0386959201  MEMB      219             0.0000000000
     24523       219  POPC      C27            16.9961666932      -14.1683477720       -7.3007639002  MEMB      219             0.0000000000
     24524       219  POPC      H7R            17.1472279164      -15.2431014240       -7.0632640716  MEMB      219             0.0000000000
     24525       219  POPC      H7S            16.0581932076      -13.7732770495       -6.8552912387  MEMB      219             0.0000000000
     24526       219  POPC      C28            18.1172716843      -13.2967555392       -6.7446793842  MEMB      219             0.0000000000
     24527       219  POPC      H8R            18.0441208606      -12.2738668156       -7.1720769857  MEMB      219             0.0000000000
     24528       219  POPC      H8S            19.0970824009      -13.7162273375       -7.0582639138  MEMB      219             0.0000000000
     24529       219  POPC      C29            18.0321266389      -13.2023875196       -5.2219396296  MEMB      219             0.0000000000
     24530       219  POPC      H91            17.7869874170      -14.1668357797       -4.7531683747  MEMB      219             0.0000000000
     24531       219  POPC      C210           18.3545920986      -12.1818713028       -4.4159788374  MEMB      219             0.0000000000
     24532       219  POPC      H101           18.1381136951      -12.1919164055       -3.3375371092  MEMB      219             0.0000000000
     24533       219  POPC      C211           18.8881604989      -10.8392952219       -5.0987560887  MEMB      219             0.0000000000
     24534       219  POPC      H11R           18.3317663923       -9.9462919708       -4.7419758882  MEMB      219             0.0000000000
     24535       219  POPC      H11S           18.7826391294      -10.8019800086       -6.2041039734  MEMB      219             0.0000000000
     24536       219  POPC      C212           20.3621820609      -10.6760098519       -4.7030002330  MEMB      219             0.0000000000
     24537       219  POPC      H12R           20.9155341886      -11.5650683128       -5.0740767076  MEMB      219             0.0000000000
     24538       219  POPC      H12S           20.5772349401      -10.7143822064       -3.6136883373  MEMB      219             0.0000000000
     24539       219  POPC      C213           21.1423684546       -9.5038659533       -5.3206807933  MEMB      219             0.0000000000
     24540       219  POPC      H13R           20.7349882046       -9.4078110682       -6.3498238218  MEMB      219             0.0000000000
     24541       219  POPC      H13S           22.2322337544       -9.6886998413       -5.2095457165  MEMB      219             0.0000000000
     24542       219  POPC      C214           20.8712229239       -8.1498593737       -4.5913530399  MEMB      219             0.0000000000
     24543       219  POPC      H14R           19.7775518156       -7.9760785521       -4.5018844044  MEMB      219             0.0000000000
     24544       219  POPC      H14S           21.1546877966       -7.2809425336       -5.2229800666  MEMB      219             0.0000000000
     24545       219  POPC      C215           21.5370355762       -8.1021956536       -3.2160247483  MEMB      219             0.0000000000
     24546       219  POPC      H15R           22.6179656835       -7.8679072256       -3.1110453937  MEMB      219             0.0000000000
     24547       219  POPC      H15S           21.4060474002       -9.0798416431       -2.7047799485  MEMB      219             0.0000000000
     24548       219  POPC      C216           20.8829155844       -6.8905781741       -2.5428566438  MEMB      219             0.0000000000
     24549       219  POPC      H16R           19.7785206259       -7.0047878612       -2.5029983908  MEMB      219             0.0000000000
     24550       219  POPC      H16S           21.1464877910       -6.1178730889       -3.2963661606  MEMB      219             0.0000000000
     24551       219  POPC      C217           21.3499518935       -6.4291202546       -1.1261831317  MEMB      219             0.0000000000
     24552       219  POPC      H17R           20.6974564992       -5.6294767533       -0.7149144443  MEMB      219             0.0000000000
     24553       219  POPC      H17S           22.4016029877       -6.1035883356       -1.2757815850  MEMB      219             0.0000000000
     24554       219  POPC      C218           21.3222662653       -7.5899276082       -0.1300605498  MEMB      219             0.0000000000
     24555       219  POPC      H18R           21.3514832222       -8.5162617391       -0.7427365115  MEMB      219             0.0000000000
     24556       219  POPC      H18S           20.4688417411       -7.4764941839        0.5721649138  MEMB      219             0.0000000000
     24557       219  POPC      H18T           22.3211857518       -7.5377258916        0.3534229120  MEMB      219             0.0000000000
     24558       219  POPC      C33            17.8380580243       -8.2413993842       -9.9377792683  MEMB      219             0.0000000000
     24559       219  POPC      H3X            17.2209252825       -7.3217999602      -10.0261258062  MEMB      219             0.0000000000
     24560       219  POPC      H3Y            18.6050602926       -7.9331277538       -9.1954874020  MEMB      219             0.0000000000
     24561       219  POPC      C34            17.0178368065       -9.4472558671       -9.4586881129  MEMB      219             0.0000000000
     24562       219  POPC      H4X            17.5505135905      -10.4185436919       -9.3739744346  MEMB      219             0.0000000000
     24563       219  POPC      H4Y            16.1912083111       -9.7045386294      -10.1549729374  MEMB      219             0.0000000000
     24564       219  POPC      C35            16.2279450028       -9.2431773673       -8.1414685800  MEMB      219             0.0000000000
     24565       219  POPC      H5X            15.8473966758       -8.2005572892       -8.0919967852  MEMB      219             0.0000000000
     24566       219  POPC      H5Y            16.8017799515       -9.1022621172       -7.2006304492  MEMB      219             0.0000000000
     24567       219  POPC      C36            15.1191427072      -10.2867567639       -8.0015540570  MEMB      219             0.0000000000
     24568       219  POPC      H6X            15.6457692210      -11.2648919092       -8.0169592288  MEMB      219             0.0000000000
     24569       219  POPC      H6Y            14.5289630856      -10.0247869813       -8.9056448859  MEMB      219             0.0000000000
     24570       219  POPC      C37            14.1160249760      -10.1369279721       -6.9367978071  MEMB      219             0.0000000000
     24571       219  POPC      H7X            13.3661695544      -10.9388293424       -7.1070675158  MEMB      219             0.0000000000
     24572       219  POPC      H7Y            13.6757994446       -9.1172450139       -6.9090525251  MEMB      219             0.0000000000
     24573       219  POPC      C38            14.6782298197      -10.4856412671       -5.6079939272  MEMB      219             0.0000000000
     24574       219  POPC      H8X            15.5994290097       -9.9024535189       -5.3944403690  MEMB      219             0.0000000000
     24575       219  POPC      H8Y            14.9365235395      -11.5577638733       -5.7427467701  MEMB      219             0.0000000000
     24576       219  POPC      C39            13.6873405779      -10.1978129666       -4.5560873421  MEMB      219             0.0000000000
     24577       219  POPC      H9X            13.0197265696      -11.0845675532       -4.5083500199  MEMB      219             0.0000000000
     24578       219  POPC      H9Y            12.9952072087       -9.3836873999       -4.8601789791  MEMB      219             0.0000000000
     24579       219  POPC      C310           14.3046031467       -9.9434622312       -3.1911695547  MEMB      219             0.0000000000
     24580       219  POPC      H10X           15.1145087480       -9.1945283028       -3.3233507793  MEMB      219             0.0000000000
     24581       219  POPC      H10Y           14.7633362716      -10.9043882110       -2.8741419515  MEMB      219             0.0000000000
     24582       219  POPC      C311           13.2179363441       -9.5772805847       -2.2351655414  MEMB      219             0.0000000000
     24583       219  POPC      H11X           12.4246813912      -10.3514790317       -2.1597689960  MEMB      219             0.0000000000
     24584       219  POPC      H11Y           12.7369512751       -8.5867550079       -2.3829246910  MEMB      219             0.0000000000
     24585       219  POPC      C312           13.8286823679       -9.5394434069       -0.8123891310  MEMB      219             0.0000000000
     24586       219  POPC      H12X           14.2189434459      -10.5569971424       -0.5965164172  MEMB      219             0.0000000000
     24587       219  POPC      H12Y           12.9538110757       -9.3596802570       -0.1516274965  MEMB      219             0.0000000000
     24588       219  POPC      C313           15.0617450506       -8.6516612919       -0.4845979047  MEMB      219             0.0000000000
     24589       219  POPC      H13X           14.7749033458       -7.6364659109       -0.8330520571  MEMB      219             0.0000000000
     24590       219  POPC      H13Y           15.9410722857       -8.8664042306       -1.1287950185  MEMB      219             0.0000000000
     24591       219  POPC      C314           15.6352643292       -8.4407905082        0.9212713938  MEMB      219             0.0000000000
     24592       219  POPC      H14X           15.1166038377       -7.7006647949        1.5674344081  MEMB      219             0.0000000000
     24593       219  POPC      H14Y           16.6175342232       -8.0221246060        0.6143750897  MEMB      219             0.0000000000
     24594       219  POPC      C315           15.8698747659       -9.7086487624        1.8199386780  MEMB      219             0.0000000000
     24595       219  POPC      H15X           14.8442494053      -10.1171186243        1.9447022977  MEMB      219             0.0000000000
     24596       219  POPC      H15Y           16.2985035684       -9.4607084611        2.8144856243  MEMB      219             0.0000000000
     24597       219  POPC      C316           16.6676486379      -10.8738592729        1.2999722205  MEMB      219             0.0000000000
     24598       219  POPC      H16X           17.7162767717      -10.6318496455        1.0240528330  MEMB      219             0.0000000000
     24599       219  POPC      H16Y           16.1370302926      -11.4193532840        0.4905270803  MEMB      219             0.0000000000
     24600       219  POPC      H16Z           16.9276552786      -11.5513547706        2.1412316308  MEMB      219             0.0000000000
     24601       220  POPE      N               0.3746786095      -18.7651603844      -17.1179676977  MEMB      220             0.0000000000
     24602       220  POPE      HN1            -0.0218342312      -19.2453860421      -16.2850446401  MEMB      220             0.0000000000
     24603       220  POPE      HN2             1.3834874038      -18.9981557528      -17.2160400010  MEMB      220             0.0000000000
     24604       220  POPE      HN3             0.2507133896      -17.7499129831      -16.9295396489  MEMB      220             0.0000000000
     24605       220  POPE      C12            -0.2404515939      -19.3065574907      -18.3777491209  MEMB      220             0.0000000000
     24606       220  POPE      H12A            0.0023451835      -18.6475603815      -19.2386170617  MEMB      220             0.0000000000
     24607       220  POPE      H12B           -1.3165201918      -19.3784246522      -18.1108550686  MEMB      220             0.0000000000
     24608       220  POPE      C11             0.4352948137      -20.6551660642      -18.5999727677  MEMB      220             0.0000000000
     24609       220  POPE      H11A            0.3498330715      -21.2456068860      -17.6627444391  MEMB      220             0.0000000000
     24610       220  POPE      H11B            1.5337016082      -20.5208845526      -18.6989265943  MEMB      220             0.0000000000
     24611       220  POPE      P              -1.2005429395      -22.3243324820      -19.6445702101  MEMB      220             0.0000000000
     24612       220  POPE      O13            -1.3687765777      -23.0775883939      -20.9087587121  MEMB      220             0.0000000000
     24613       220  POPE      O14            -2.3948256059      -21.5601302069      -19.1167335564  MEMB      220             0.0000000000
     24614       220  POPE      O11            -0.6850698628      -23.2411645430      -18.4796807629  MEMB      220             0.0000000000
     24615       220  POPE      O12            -0.0091999004      -21.3181076846      -19.7545671889  MEMB      220             0.0000000000
     24616       220  POPE      C1             -0.6404789176      -24.6708118256      -18.7060595018  MEMB      220             0.0000000000
     24617       220  POPE      HA              0.2444820024      -24.8311874835      -19.3583207634  MEMB      220             0.0000000000
     24618       220  POPE      HB             -1.5108936311      -25.0669152444      -19.2715693036  MEMB      220             0.0000000000
     24619       220  POPE      C2             -0.5336924242      -25.2604371352      -17.2625444509  MEMB      220             0.0000000000
     24620       220  POPE      HS             -0.9447485135      -26.2880210621      -17.3596262200  MEMB      220             0.0000000000
     24621       220  POPE      O21            -1.4012910282      -24.4386920225      -16.4557410030  MEMB      220             0.0000000000
     24622       220  POPE      C21            -2.7712668386      -24.3813329217      -16.6464890646  MEMB      220             0.0000000000
     24623       220  POPE      O22            -3.3703581825      -25.0673409847      -17.4561896563  MEMB      220             0.0000000000
     24624       220  POPE      C22            -3.4049980269      -23.4791429829      -15.6224372230  MEMB      220             0.0000000000
     24625       220  POPE      H2R            -3.6079863294      -24.0693047226      -14.7032930265  MEMB      220             0.0000000000
     24626       220  POPE      H2S            -4.3731960054      -23.1131553954      -16.0261288983  MEMB      220             0.0000000000
     24627       220  POPE      C3              0.8954083245      -25.2141134328      -16.7506967359  MEMB      220             0.0000000000
     24628       220  POPE      HX              1.3920550307      -25.9526732693      -17.4156721646  MEMB      220             0.0000000000
     24629       220  POPE      HY              0.8399420813      -25.5380008264      -15.6894044893  MEMB      220             0.0000000000
     24630       220  POPE      O31             1.4615230449      -23.9447571633      -16.8784996029  MEMB      220             0.0000000000
     24631       220  POPE      C31             2.8209374355      -23.7860998308      -16.7814748280  MEMB      220             0.0000000000
     24632       220  POPE      O32             3.6241342040      -24.7156177102      -16.6258551794  MEMB      220             0.0000000000
     24633       220  POPE      C32             3.1113300026      -22.3378177622      -16.9081965052  MEMB      220             0.0000000000
     24634       220  POPE      H2X             2.2019462353      -21.7390456167      -16.6872571046  MEMB      220             0.0000000000
     24635       220  POPE      H2Y             3.5140201418      -21.9855750280      -17.8818938881  MEMB      220             0.0000000000
     24636       220  POPE      C23            -2.6075394237      -22.2121368370      -15.2564671428  MEMB      220             0.0000000000
     24637       220  POPE      H3R            -3.3578528001      -21.4369576263      -14.9910466589  MEMB      220             0.0000000000
     24638       220  POPE      H3S            -2.1101082472      -21.7849611178      -16.1533529908  MEMB      220             0.0000000000
     24639       220  POPE      C24            -1.5960371103      -22.5108286626      -14.0519797091  MEMB      220             0.0000000000
     24640       220  POPE      H4R            -0.8870650250      -21.6777625644      -14.2460941481  MEMB      220             0.0000000000
     24641       220  POPE      H4S            -1.0120313912      -23.4241798753      -14.2949774495  MEMB      220             0.0000000000
     24642       220  POPE      C25            -2.1846849842      -22.6205613842      -12.6331226453  MEMB      220             0.0000000000
     24643       220  POPE      H5R            -1.5536592771      -23.2324442965      -11.9536175174  MEMB      220             0.0000000000
     24644       220  POPE      H5S            -3.0786137373      -23.2800621582      -12.6495878184  MEMB      220             0.0000000000
     24645       220  POPE      C26            -2.6301660636      -21.2728958070      -11.9191363423  MEMB      220             0.0000000000
     24646       220  POPE      H6R            -1.6753863243      -20.7229512557      -11.7767364004  MEMB      220             0.0000000000
     24647       220  POPE      H6S            -2.9792681125      -21.6185099045      -10.9226429590  MEMB      220             0.0000000000
     24648       220  POPE      C27            -3.7040024133      -20.3820051387      -12.5865642887  MEMB      220             0.0000000000
     24649       220  POPE      H7R            -4.5752885439      -20.9590281286      -12.9636933051  MEMB      220             0.0000000000
     24650       220  POPE      H7S            -3.2849538189      -19.9139824621      -13.5029016622  MEMB      220             0.0000000000
     24651       220  POPE      C28            -4.3182137618      -19.2786090359      -11.6699967295  MEMB      220             0.0000000000
     24652       220  POPE      H8R            -4.7721584774      -19.7356400832      -10.7648019008  MEMB      220             0.0000000000
     24653       220  POPE      H8S            -5.1630449044      -18.8156715478      -12.2234137058  MEMB      220             0.0000000000
     24654       220  POPE      C29            -3.4261110974      -18.0577263447      -11.4415040751  MEMB      220             0.0000000000
     24655       220  POPE      H91            -3.3071062999      -17.3981354133      -12.3137296253  MEMB      220             0.0000000000
     24656       220  POPE      C210           -2.7357978786      -17.6729653712      -10.3128680400  MEMB      220             0.0000000000
     24657       220  POPE      H101           -2.1623075109      -16.7350052532      -10.3494656965  MEMB      220             0.0000000000
     24658       220  POPE      C211           -2.7759807417      -18.4636621309       -9.0319980970  MEMB      220             0.0000000000
     24659       220  POPE      H11R           -1.8124828508      -19.0131252853       -9.0958963387  MEMB      220             0.0000000000
     24660       220  POPE      H11S           -3.7140727576      -19.0572402436       -8.9876174954  MEMB      220             0.0000000000
     24661       220  POPE      C212           -2.7277507108      -17.5846933838       -7.7798216362  MEMB      220             0.0000000000
     24662       220  POPE      H12R           -3.5131398013      -17.8974649585       -7.0589476607  MEMB      220             0.0000000000
     24663       220  POPE      H12S           -2.9709897694      -16.5142914339       -7.9512715977  MEMB      220             0.0000000000
     24664       220  POPE      C213           -1.5335495239      -17.7826969447       -6.8973583125  MEMB      220             0.0000000000
     24665       220  POPE      H13R           -1.2629068327      -18.8472510185       -6.7306313631  MEMB      220             0.0000000000
     24666       220  POPE      H13S           -1.7631679026      -17.4206831683       -5.8723985720  MEMB      220             0.0000000000
     24667       220  POPE      C214           -0.2853767615      -17.0021911307       -7.3830024671  MEMB      220             0.0000000000
     24668       220  POPE      H14R           -0.3963570121      -15.9370628228       -7.0871886383  MEMB      220             0.0000000000
     24669       220  POPE      H14S           -0.0655064611      -17.0579329961       -8.4706010738  MEMB      220             0.0000000000
     24670       220  POPE      C215            0.9409578761      -17.5644896987       -6.6054855475  MEMB      220             0.0000000000
     24671       220  POPE      H15R            1.8584783086      -17.0830376568       -7.0063361867  MEMB      220             0.0000000000
     24672       220  POPE      H15S            0.8852270098      -18.6366515958       -6.8912900627  MEMB      220             0.0000000000
     24673       220  POPE      C216            1.0022987257      -17.4495478977       -5.0691596518  MEMB      220             0.0000000000
     24674       220  POPE      H16R            0.2274570709      -18.1706881632       -4.7316715796  MEMB      220             0.0000000000
     24675       220  POPE      H16S            0.7663270801      -16.3675921384       -4.9796602429  MEMB      220             0.0000000000
     24676       220  POPE      C217            2.3890643281      -17.7432223829       -4.4188225335  MEMB      220             0.0000000000
     24677       220  POPE      H17R            3.2439627987      -17.3004559541       -4.9732837731  MEMB      220             0.0000000000
     24678       220  POPE      H17S            2.6321827729      -18.7953137824       -4.1574452865  MEMB      220             0.0000000000
     24679       220  POPE      C218            2.4902181480      -17.1616233253       -3.0119811744  MEMB      220             0.0000000000
     24680       220  POPE      H18R            2.5627067534      -16.0530160071       -3.0194898311  MEMB      220             0.0000000000
     24681       220  POPE      H18S            3.4752496206      -17.5397165568       -2.6640182525  MEMB      220             0.0000000000
     24682       220  POPE      H18T            1.7090468453      -17.6168572885       -2.3663395539  MEMB      220             0.0000000000
     24683       220  POPE      C33             4.1594248984      -22.0711050173      -15.6999821481  MEMB      220             0.0000000000
     24684       220  POPE      H3X             4.6757136395      -21.1158712679      -15.9351312186  MEMB      220             0.0000000000
     24685       220  POPE      H3Y             4.9780019313      -22.8172823461      -15.7864237879  MEMB      220             0.0000000000
     24686       220  POPE      C34             3.5567824663      -22.0338643405      -14.2368578159  MEMB      220             0.0000000000
     24687       220  POPE      H4X             4.3685021959      -21.8133719125      -13.5110371883  MEMB      220             0.0000000000
     24688       220  POPE      H4Y             3.2990785500      -23.0972773456      -14.0443419468  MEMB      220             0.0000000000
     24689       220  POPE      C35             2.1899699286      -21.1838445222      -14.0205760532  MEMB      220             0.0000000000
     24690       220  POPE      H5X             1.4194680034      -21.5613899867      -14.7263430453  MEMB      220             0.0000000000
     24691       220  POPE      H5Y             2.4128202450      -20.1255967133      -14.2750760667  MEMB      220             0.0000000000
     24692       220  POPE      C36             1.6783214309      -21.1640466254      -12.5950857211  MEMB      220             0.0000000000
     24693       220  POPE      H6X             1.3376585036      -22.1435316058      -12.1964897045  MEMB      220             0.0000000000
     24694       220  POPE      H6Y             0.7928476881      -20.4933334017      -12.6151133350  MEMB      220             0.0000000000
     24695       220  POPE      C37             2.6396594780      -20.4965011220      -11.6568235920  MEMB      220             0.0000000000
     24696       220  POPE      H7X             2.8010596807      -19.4442792020      -11.9747857075  MEMB      220             0.0000000000
     24697       220  POPE      H7Y             3.6067085600      -21.0421987499      -11.6935795840  MEMB      220             0.0000000000
     24698       220  POPE      C38             1.9790381011      -20.2357401436      -10.2967227135  MEMB      220             0.0000000000
     24699       220  POPE      H8X             1.0857443639      -19.5953749720      -10.4588336563  MEMB      220             0.0000000000
     24700       220  POPE      H8Y             2.7293796921      -19.6971246967       -9.6793074125  MEMB      220             0.0000000000
     24701       220  POPE      C39             1.5464635684      -21.4633709596       -9.5252953652  MEMB      220             0.0000000000
     24702       220  POPE      H9X             2.4053115127      -22.0855403924       -9.1942260415  MEMB      220             0.0000000000
     24703       220  POPE      H9Y             0.7849377166      -22.0064624627      -10.1248376086  MEMB      220             0.0000000000
     24704       220  POPE      C310            0.8439868429      -21.0215330000       -8.2302993269  MEMB      220             0.0000000000
     24705       220  POPE      H10X           -0.1362376398      -20.6901948624       -8.6348936979  MEMB      220             0.0000000000
     24706       220  POPE      H10Y            1.3998219219      -20.1606954923       -7.8009662005  MEMB      220             0.0000000000
     24707       220  POPE      C311            0.6995049344      -22.2318545085       -7.2307957294  MEMB      220             0.0000000000
     24708       220  POPE      H11X            1.6493034656      -22.3749537662       -6.6724718430  MEMB      220             0.0000000000
     24709       220  POPE      H11Y            0.4869176741      -23.1919737759       -7.7478055557  MEMB      220             0.0000000000
     24710       220  POPE      C312           -0.3993554433      -22.0750505452       -6.1090990437  MEMB      220             0.0000000000
     24711       220  POPE      H12X           -1.3515581698      -21.8171602435       -6.6201004214  MEMB      220             0.0000000000
     24712       220  POPE      H12Y           -0.1860455037      -21.1604282452       -5.5155622586  MEMB      220             0.0000000000
     24713       220  POPE      C313           -0.5800498240      -23.2726860757       -5.1700848068  MEMB      220             0.0000000000
     24714       220  POPE      H13X           -1.2147479449      -24.1070824516       -5.5378647218  MEMB      220             0.0000000000
     24715       220  POPE      H13Y           -1.2768295937      -22.8772043151       -4.4004010804  MEMB      220             0.0000000000
     24716       220  POPE      C314            0.7316058751      -23.6695790395       -4.3658237860  MEMB      220             0.0000000000
     24717       220  POPE      H14X            1.3564129850      -22.7543070067       -4.4446530098  MEMB      220             0.0000000000
     24718       220  POPE      H14Y            1.2021093713      -24.5350420368       -4.8795553219  MEMB      220             0.0000000000
     24719       220  POPE      C315            0.5716162011      -24.0661962202       -2.8954257362  MEMB      220             0.0000000000
     24720       220  POPE      H15X           -0.1544343569      -24.8921937734       -2.7376281183  MEMB      220             0.0000000000
     24721       220  POPE      H15Y            0.3576140827      -23.2181616395       -2.2103263349  MEMB      220             0.0000000000
     24722       220  POPE      C316            1.9497220451      -24.6104826316       -2.3412080164  MEMB      220             0.0000000000
     24723       220  POPE      H16X            1.9955614581      -24.5992039358       -1.2312107633  MEMB      220             0.0000000000
     24724       220  POPE      H16Y            2.7993775434      -23.9704371709       -2.6617511621  MEMB      220             0.0000000000
     24725       220  POPE      H16Z            1.9845517520      -25.6067634808       -2.8316481377  MEMB      220             0.0000000000
     24726       221  POPE      N             -21.3951787914        2.7928295114      -17.5979093525  MEMB      221             0.0000000000
     24727       221  POPE      HN1           -20.5419511986        3.0918683076      -18.1118923780  MEMB      221             0.0000000000
     24728       221  POPE      HN2           -21.0950009081        2.0675422111      -16.9156693463  MEMB      221             0.0000000000
     24729       221  POPE      HN3           -22.0349037915        2.2396233563      -18.2031488489  MEMB      221             0.0000000000
     24730       221  POPE      C12           -22.1579311839        3.9360187544      -16.9360331140  MEMB      221             0.0000000000
     24731       221  POPE      H12A          -21.6453362376        4.2454649212      -16.0001857337  MEMB      221             0.0000000000
     24732       221  POPE      H12B          -23.1506387745        3.5458955423      -16.6251366815  MEMB      221             0.0000000000
     24733       221  POPE      C11           -22.2053842758        5.1355000965      -17.8725785350  MEMB      221             0.0000000000
     24734       221  POPE      H11A          -21.1996137463        5.4319132051      -18.2398466377  MEMB      221             0.0000000000
     24735       221  POPE      H11B          -22.5567434381        6.0320152798      -17.3183870071  MEMB      221             0.0000000000
     24736       221  POPE      P             -23.2398268169        5.9467292098      -19.9996980172  MEMB      221             0.0000000000
     24737       221  POPE      O13           -23.0359262253        5.4047588306      -21.3685109603  MEMB      221             0.0000000000
     24738       221  POPE      O14           -22.4850520236        7.1092018493      -19.5787988824  MEMB      221             0.0000000000
     24739       221  POPE      O11           -24.7429115430        6.3049509640      -19.6710732978  MEMB      221             0.0000000000
     24740       221  POPE      O12           -23.0184867411        4.8208691038      -18.9753978433  MEMB      221             0.0000000000
     24741       221  POPE      C1            -25.8303323512        5.5150883580      -19.2232553904  MEMB      221             0.0000000000
     24742       221  POPE      HA            -25.4844996029        4.5103679030      -18.8988212462  MEMB      221             0.0000000000
     24743       221  POPE      HB            -26.5759780954        5.3447346994      -20.0290551372  MEMB      221             0.0000000000
     24744       221  POPE      C2            -26.4795027935        6.1907784559      -17.9935935432  MEMB      221             0.0000000000
     24745       221  POPE      HS            -27.1103009836        7.0707499618      -18.2427211474  MEMB      221             0.0000000000
     24746       221  POPE      O21           -25.5457446464        6.5832458810      -16.9740383091  MEMB      221             0.0000000000
     24747       221  POPE      C21           -25.7944011676        7.4413090752      -15.9274916582  MEMB      221             0.0000000000
     24748       221  POPE      O22           -26.7877099487        8.1365515013      -15.8191721301  MEMB      221             0.0000000000
     24749       221  POPE      C22           -24.5992391493        7.2031313325      -14.9388724754  MEMB      221             0.0000000000
     24750       221  POPE      H2R           -23.6925668972        7.6385306678      -15.4107771310  MEMB      221             0.0000000000
     24751       221  POPE      H2S           -24.6229671401        6.1159768915      -14.7111595942  MEMB      221             0.0000000000
     24752       221  POPE      C3            -27.4810431518        5.1601946499      -17.4038765748  MEMB      221             0.0000000000
     24753       221  POPE      HX            -28.0525419784        4.6278692508      -18.1940282741  MEMB      221             0.0000000000
     24754       221  POPE      HY            -28.0588690504        5.8470614253      -16.7491611376  MEMB      221             0.0000000000
     24755       221  POPE      O31           -26.7311688050        4.0990646234      -16.6773121826  MEMB      221             0.0000000000
     24756       221  POPE      C31           -26.6179411950        4.1729562166      -15.3068273524  MEMB      221             0.0000000000
     24757       221  POPE      O32           -27.1155086740        4.9865102844      -14.6037062029  MEMB      221             0.0000000000
     24758       221  POPE      C32           -25.8498779048        2.9208210942      -14.8343781345  MEMB      221             0.0000000000
     24759       221  POPE      H2X           -24.8937188014        2.8866301128      -15.3991007751  MEMB      221             0.0000000000
     24760       221  POPE      H2Y           -26.5338194880        2.1011289320      -15.1420303968  MEMB      221             0.0000000000
     24761       221  POPE      C23           -24.9224654215        7.9397007477      -13.6555396222  MEMB      221             0.0000000000
     24762       221  POPE      H3R           -25.8531838886        7.5487845724      -13.1915688615  MEMB      221             0.0000000000
     24763       221  POPE      H3S           -25.3092183157        8.9680389349      -13.8206586134  MEMB      221             0.0000000000
     24764       221  POPE      C24           -23.7251014668        7.8526753333      -12.7361163017  MEMB      221             0.0000000000
     24765       221  POPE      H4R           -23.8985340935        8.5966473570      -11.9294272786  MEMB      221             0.0000000000
     24766       221  POPE      H4S           -22.7628290143        8.1037906365      -13.2313879918  MEMB      221             0.0000000000
     24767       221  POPE      C25           -23.4808915776        6.4843130828      -12.0858844035  MEMB      221             0.0000000000
     24768       221  POPE      H5R           -22.5318968037        6.6421871392      -11.5301816490  MEMB      221             0.0000000000
     24769       221  POPE      H5S           -23.3515292452        5.7708383481      -12.9276327920  MEMB      221             0.0000000000
     24770       221  POPE      C26           -24.5618989959        6.1652280794      -11.1040384456  MEMB      221             0.0000000000
     24771       221  POPE      H6R           -25.4753192428        5.8565604420      -11.6560427547  MEMB      221             0.0000000000
     24772       221  POPE      H6S           -24.7893108376        7.0625599761      -10.4897095015  MEMB      221             0.0000000000
     24773       221  POPE      C27           -24.1817223625        4.9590707713      -10.1466886587  MEMB      221             0.0000000000
     24774       221  POPE      H7R           -23.3076110807        5.3226398755       -9.5652520771  MEMB      221             0.0000000000
     24775       221  POPE      H7S           -23.7953700329        4.1125716487      -10.7537242090  MEMB      221             0.0000000000
     24776       221  POPE      C28           -25.4376660749        4.4192309059       -9.4536511343  MEMB      221             0.0000000000
     24777       221  POPE      H8R           -26.2864245874        4.4446597248      -10.1700896917  MEMB      221             0.0000000000
     24778       221  POPE      H8S           -25.7319592300        5.1156979967       -8.6396203754  MEMB      221             0.0000000000
     24779       221  POPE      C29           -25.1355124113        3.0327696312       -8.8016088225  MEMB      221             0.0000000000
     24780       221  POPE      H91           -25.1636687337        2.1492011793       -9.4562188539  MEMB      221             0.0000000000
     24781       221  POPE      C210          -24.7791739373        2.7393819393       -7.5885014648  MEMB      221             0.0000000000
     24782       221  POPE      H101          -24.5273258787        1.7111129195       -7.2897776594  MEMB      221             0.0000000000
     24783       221  POPE      C211          -24.6495115119        3.6271556398       -6.4613276089  MEMB      221             0.0000000000
     24784       221  POPE      H11R          -24.4404801320        4.6390375989       -6.8696436253  MEMB      221             0.0000000000
     24785       221  POPE      H11S          -23.8388003233        3.3850431315       -5.7412933926  MEMB      221             0.0000000000
     24786       221  POPE      C212          -25.9223013832        3.6477435849       -5.5914500058  MEMB      221             0.0000000000
     24787       221  POPE      H12R          -25.9013958127        2.8130708751       -4.8585074829  MEMB      221             0.0000000000
     24788       221  POPE      H12S          -26.9074388500        3.6850265464       -6.1037338856  MEMB      221             0.0000000000
     24789       221  POPE      C213          -25.9054811979        4.8688590943       -4.6666370751  MEMB      221             0.0000000000
     24790       221  POPE      H13R          -24.8988203944        4.9050478683       -4.1979738632  MEMB      221             0.0000000000
     24791       221  POPE      H13S          -26.6416573676        4.7592208691       -3.8418072112  MEMB      221             0.0000000000
     24792       221  POPE      C214          -26.2376994583        6.1930943514       -5.4155031639  MEMB      221             0.0000000000
     24793       221  POPE      H14R          -26.9681383837        6.7819826148       -4.8205327377  MEMB      221             0.0000000000
     24794       221  POPE      H14S          -26.6792424184        5.9545626279       -6.4066960236  MEMB      221             0.0000000000
     24795       221  POPE      C215          -24.9161785393        7.0726910866       -5.6443444028  MEMB      221             0.0000000000
     24796       221  POPE      H15R          -25.1926578810        7.8772598707       -6.3588712634  MEMB      221             0.0000000000
     24797       221  POPE      H15S          -24.1480588830        6.4655728605       -6.1694347334  MEMB      221             0.0000000000
     24798       221  POPE      C216          -24.3755475016        7.8432618131       -4.3866234178  MEMB      221             0.0000000000
     24799       221  POPE      H16R          -25.0089712721        7.6150997276       -3.5028598992  MEMB      221             0.0000000000
     24800       221  POPE      H16S          -24.4148300728        8.9237054566       -4.6423944803  MEMB      221             0.0000000000
     24801       221  POPE      C217          -22.8855165229        7.4336227167       -4.1177176582  MEMB      221             0.0000000000
     24802       221  POPE      H17R          -22.3754768821        7.8039348919       -5.0326212212  MEMB      221             0.0000000000
     24803       221  POPE      H17S          -22.6810858845        6.3416469374       -4.1068490130  MEMB      221             0.0000000000
     24804       221  POPE      C218          -22.1680631920        7.9237631014       -2.8002845852  MEMB      221             0.0000000000
     24805       221  POPE      H18R          -22.3465558097        9.0182177580       -2.7322368598  MEMB      221             0.0000000000
     24806       221  POPE      H18S          -21.1062408023        7.6105511343       -2.8938395755  MEMB      221             0.0000000000
     24807       221  POPE      H18T          -22.6110639343        7.5177583470       -1.8658164788  MEMB      221             0.0000000000
     24808       221  POPE      C33           -25.7171664098        2.8710474144      -13.3564462124  MEMB      221             0.0000000000
     24809       221  POPE      H3X           -26.7277232379        2.9441212057      -12.9006440036  MEMB      221             0.0000000000
     24810       221  POPE      H3Y           -25.1257635781        3.7607601563      -13.0515283711  MEMB      221             0.0000000000
     24811       221  POPE      C34           -25.0292180154        1.6384398525      -12.7258186116  MEMB      221             0.0000000000
     24812       221  POPE      H4X           -25.3860169553        0.6601290708      -13.1130186062  MEMB      221             0.0000000000
     24813       221  POPE      H4Y           -25.3376440718        1.7385486603      -11.6631929987  MEMB      221             0.0000000000
     24814       221  POPE      C35           -23.5329750052        1.7911040586      -12.8349344921  MEMB      221             0.0000000000
     24815       221  POPE      H5X           -23.0813048399        2.8058590666      -12.8591698090  MEMB      221             0.0000000000
     24816       221  POPE      H5Y           -23.3444829670        1.3288214003      -13.8274498173  MEMB      221             0.0000000000
     24817       221  POPE      C36           -22.7837123595        0.9098143439      -11.7501344518  MEMB      221             0.0000000000
     24818       221  POPE      H6X           -23.0520971606       -0.1368140146      -12.0087077921  MEMB      221             0.0000000000
     24819       221  POPE      H6Y           -23.1700888002        1.3007512962      -10.7846276876  MEMB      221             0.0000000000
     24820       221  POPE      C37           -21.2287322963        1.1888720350      -11.6965325200  MEMB      221             0.0000000000
     24821       221  POPE      H7X           -20.8976675133        1.2802483151      -12.7531156707  MEMB      221             0.0000000000
     24822       221  POPE      H7Y           -20.6954318744        0.3842179061      -11.1465840954  MEMB      221             0.0000000000
     24823       221  POPE      C38           -20.8943468825        2.4802137229      -10.9334429734  MEMB      221             0.0000000000
     24824       221  POPE      H8X           -21.4709204097        3.3321449310      -11.3530822955  MEMB      221             0.0000000000
     24825       221  POPE      H8Y           -19.8243798965        2.6447304362      -11.1832952628  MEMB      221             0.0000000000
     24826       221  POPE      C39           -21.0344710570        2.5195109232       -9.4042881748  MEMB      221             0.0000000000
     24827       221  POPE      H9X           -20.4989721630        1.6707739394       -8.9276248377  MEMB      221             0.0000000000
     24828       221  POPE      H9Y           -22.1099577466        2.3776589346       -9.1644394425  MEMB      221             0.0000000000
     24829       221  POPE      C310          -20.6066861602        3.7546041170       -8.6548277639  MEMB      221             0.0000000000
     24830       221  POPE      H10X          -21.1867584766        3.7841400506       -7.7077450761  MEMB      221             0.0000000000
     24831       221  POPE      H10Y          -20.9350519197        4.6135842268       -9.2782459072  MEMB      221             0.0000000000
     24832       221  POPE      C311          -19.1252274151        3.6873713482       -8.3608888846  MEMB      221             0.0000000000
     24833       221  POPE      H11X          -18.5265628446        3.4519200527       -9.2666948681  MEMB      221             0.0000000000
     24834       221  POPE      H11Y          -19.0817494801        2.9217029311       -7.5570338014  MEMB      221             0.0000000000
     24835       221  POPE      C312          -18.7423867837        4.9964340336       -7.6812240814  MEMB      221             0.0000000000
     24836       221  POPE      H12X          -18.9759349859        5.8692842480       -8.3276830200  MEMB      221             0.0000000000
     24837       221  POPE      H12Y          -17.6454228034        4.9192997080       -7.5229787231  MEMB      221             0.0000000000
     24838       221  POPE      C313          -19.5078374409        5.2993106269       -6.3471973706  MEMB      221             0.0000000000
     24839       221  POPE      H13X          -20.6010195874        5.3802405490       -6.5280947029  MEMB      221             0.0000000000
     24840       221  POPE      H13Y          -19.1351376353        6.2795025594       -5.9802635787  MEMB      221             0.0000000000
     24841       221  POPE      C314          -19.1460894698        4.2999064788       -5.2525358786  MEMB      221             0.0000000000
     24842       221  POPE      H14X          -18.0501412622        4.1249063350       -5.2016115424  MEMB      221             0.0000000000
     24843       221  POPE      H14Y          -19.5850667306        3.3243556796       -5.5524040440  MEMB      221             0.0000000000
     24844       221  POPE      C315          -19.7481511883        4.7509851585       -3.8508234182  MEMB      221             0.0000000000
     24845       221  POPE      H15X          -20.7950146106        5.0620945149       -4.0548063178  MEMB      221             0.0000000000
     24846       221  POPE      H15Y          -19.1149852953        5.6457358094       -3.6695957142  MEMB      221             0.0000000000
     24847       221  POPE      C316          -19.7169091879        3.5748817383       -2.7579758911  MEMB      221             0.0000000000
     24848       221  POPE      H16X          -18.7128228087        3.1071213004       -2.8436021981  MEMB      221             0.0000000000
     24849       221  POPE      H16Y          -20.4426760830        2.7575036178       -2.9566612573  MEMB      221             0.0000000000
     24850       221  POPE      H16Z          -19.9307094578        4.1191057192       -1.8132903821  MEMB      221             0.0000000000
     24851       222  POPC      N              18.4157394372       21.0472227803      -20.1749556135  MEMB      222             0.0000000000
     24852       222  POPC      C12            17.5242330249       20.7667053144      -18.9845504206  MEMB      222             0.0000000000
     24853       222  POPC      H12A           16.6122529031       20.3603090227      -19.3962959256  MEMB      222             0.0000000000
     24854       222  POPC      H12B           17.3335403857       21.7616057672      -18.6101051929  MEMB      222             0.0000000000
     24855       222  POPC      C13            18.6790979937       19.8513825167      -21.0225436969  MEMB      222             0.0000000000
     24856       222  POPC      H13A           19.0968775582       19.0924620377      -20.3776407720  MEMB      222             0.0000000000
     24857       222  POPC      H13B           17.7214865498       19.5054772736      -21.3827242669  MEMB      222             0.0000000000
     24858       222  POPC      H13C           19.2375112795       20.1219640349      -21.9064895604  MEMB      222             0.0000000000
     24859       222  POPC      C14            17.8008208259       22.0728812104      -21.0922535857  MEMB      222             0.0000000000
     24860       222  POPC      H14A           16.8672239603       21.7093743967      -21.4955645618  MEMB      222             0.0000000000
     24861       222  POPC      H14B           17.6995345480       22.9550145252      -20.4774514109  MEMB      222             0.0000000000
     24862       222  POPC      H14C           18.3752476446       22.1348524431      -22.0047192221  MEMB      222             0.0000000000
     24863       222  POPC      C15            19.7598611963       21.6055254583      -19.7511370484  MEMB      222             0.0000000000
     24864       222  POPC      H15A           20.4733531948       20.8532433711      -19.4488112154  MEMB      222             0.0000000000
     24865       222  POPC      H15B           19.5990251967       22.2824676625      -18.9251341160  MEMB      222             0.0000000000
     24866       222  POPC      H15C           20.2543296291       22.1513350979      -20.5410691046  MEMB      222             0.0000000000
     24867       222  POPC      C11            18.0261771459       19.7679149529      -17.9122647476  MEMB      222             0.0000000000
     24868       222  POPC      H11A           17.1545633035       19.4813699066      -17.2857647877  MEMB      222             0.0000000000
     24869       222  POPC      H11B           18.8308742982       20.1192964734      -17.2315926879  MEMB      222             0.0000000000
     24870       222  POPC      P              19.6450031973       17.7038632401      -18.0427384012  MEMB      222             0.0000000000
     24871       222  POPC      O13            20.7892254819       18.6020256785      -18.1650051970  MEMB      222             0.0000000000
     24872       222  POPC      O14            19.7114536408       16.4039061183      -18.7870904563  MEMB      222             0.0000000000
     24873       222  POPC      O12            18.3430445942       18.5029683246      -18.5967193414  MEMB      222             0.0000000000
     24874       222  POPC      O11            19.3912082804       17.4243758992      -16.4707414910  MEMB      222             0.0000000000
     24875       222  POPC      C1             18.1782688757       16.8201396777      -16.0875563499  MEMB      222             0.0000000000
     24876       222  POPC      HA             17.6780235215       16.4123171471      -16.9918552225  MEMB      222             0.0000000000
     24877       222  POPC      HB             17.6086043973       17.6424915329      -15.6042957995  MEMB      222             0.0000000000
     24878       222  POPC      C2             18.5705865337       15.7276236756      -15.0439803077  MEMB      222             0.0000000000
     24879       222  POPC      HS             17.6835553141       15.3242936000      -14.5102935468  MEMB      222             0.0000000000
     24880       222  POPC      O21            19.5464370522       16.3089992335      -14.1117297275  MEMB      222             0.0000000000
     24881       222  POPC      C21            19.0320966812       17.0798313822      -13.1158607013  MEMB      222             0.0000000000
     24882       222  POPC      O22            17.8446918417       17.2090575164      -12.8476484632  MEMB      222             0.0000000000
     24883       222  POPC      C22            20.1472578450       17.7859835781      -12.3078883832  MEMB      222             0.0000000000
     24884       222  POPC      H2R            20.8435804900       18.1760708558      -13.0807324634  MEMB      222             0.0000000000
     24885       222  POPC      H2S            20.6605650942       17.0875408026      -11.6128960714  MEMB      222             0.0000000000
     24886       222  POPC      C3             19.2277464520       14.4765234318      -15.7297368806  MEMB      222             0.0000000000
     24887       222  POPC      HX             20.0673939468       14.9015692994      -16.3202019548  MEMB      222             0.0000000000
     24888       222  POPC      HY             18.4435984892       14.1132876817      -16.4279435358  MEMB      222             0.0000000000
     24889       222  POPC      O31            19.6072937700       13.5291584159      -14.7623792992  MEMB      222             0.0000000000
     24890       222  POPC      C31            20.9080941379       13.5514682327      -14.3748102766  MEMB      222             0.0000000000
     24891       222  POPC      O32            21.7635891432       14.1694905728      -14.9805532078  MEMB      222             0.0000000000
     24892       222  POPC      C32            21.1308915016       12.6302812562      -13.1918997891  MEMB      222             0.0000000000
     24893       222  POPC      H2X            22.1387933231       12.1826534647      -13.3263784445  MEMB      222             0.0000000000
     24894       222  POPC      H2Y            20.3753371793       11.8212310171      -13.0975803004  MEMB      222             0.0000000000
     24895       222  POPC      C23            19.4235764698       18.9419399221      -11.3591787641  MEMB      222             0.0000000000
     24896       222  POPC      H3R            18.8684795356       18.3574736516      -10.5945957850  MEMB      222             0.0000000000
     24897       222  POPC      H3S            18.7272264192       19.6205898902      -11.8966283684  MEMB      222             0.0000000000
     24898       222  POPC      C24            20.4325257364       19.8155391143      -10.6411705879  MEMB      222             0.0000000000
     24899       222  POPC      H4R            21.1414893888       20.2809034314      -11.3588945717  MEMB      222             0.0000000000
     24900       222  POPC      H4S            21.0125018804       19.2255679235       -9.8996297917  MEMB      222             0.0000000000
     24901       222  POPC      C25            19.7197498938       20.9653695127       -9.8666866000  MEMB      222             0.0000000000
     24902       222  POPC      H5R            19.2632371671       21.7011245413      -10.5628058099  MEMB      222             0.0000000000
     24903       222  POPC      H5S            20.5232899178       21.5007466638       -9.3171273273  MEMB      222             0.0000000000
     24904       222  POPC      C26            18.6905037152       20.4578228174       -8.8303157349  MEMB      222             0.0000000000
     24905       222  POPC      H6R            19.2775114031       19.7798631900       -8.1744856122  MEMB      222             0.0000000000
     24906       222  POPC      H6S            17.8002191985       19.9708620637       -9.2826256489  MEMB      222             0.0000000000
     24907       222  POPC      C27            18.0711156502       21.5924703164       -8.0839037236  MEMB      222             0.0000000000
     24908       222  POPC      H7R            17.4118708676       22.0812041747       -8.8328073251  MEMB      222             0.0000000000
     24909       222  POPC      H7S            18.9490384727       22.2090400952       -7.7950893028  MEMB      222             0.0000000000
     24910       222  POPC      C28            17.2377868389       21.2120767380       -6.8274451202  MEMB      222             0.0000000000
     24911       222  POPC      H8R            17.0436984832       22.2188513160       -6.3995954468  MEMB      222             0.0000000000
     24912       222  POPC      H8S            18.0053735461       20.7217221415       -6.1912972940  MEMB      222             0.0000000000
     24913       222  POPC      C29            15.8937801120       20.4688208022       -7.0280080579  MEMB      222             0.0000000000
     24914       222  POPC      H91            15.1681224264       20.9718884894       -7.6840144510  MEMB      222             0.0000000000
     24915       222  POPC      C210           15.6523077592       19.2766389370       -6.5332059313  MEMB      222             0.0000000000
     24916       222  POPC      H101           14.7346365234       18.8197355621       -6.9321031153  MEMB      222             0.0000000000
     24917       222  POPC      C211           16.5927418581       18.3356966975       -5.7665583236  MEMB      222             0.0000000000
     24918       222  POPC      H11R           17.6595759644       18.4262766661       -6.0631745233  MEMB      222             0.0000000000
     24919       222  POPC      H11S           16.2134856534       17.3230417708       -6.0215400099  MEMB      222             0.0000000000
     24920       222  POPC      C212           16.5486601843       18.6155611146       -4.2632913856  MEMB      222             0.0000000000
     24921       222  POPC      H12R           15.5270129224       18.4443304813       -3.8617462750  MEMB      222             0.0000000000
     24922       222  POPC      H12S           16.8586461096       19.6609482833       -4.0502295553  MEMB      222             0.0000000000
     24923       222  POPC      C213           17.4048093875       17.5460982461       -3.5700126494  MEMB      222             0.0000000000
     24924       222  POPC      H13R           18.3675774099       17.5468093666       -4.1244476718  MEMB      222             0.0000000000
     24925       222  POPC      H13S           16.8470686470       16.5869570291       -3.6274083242  MEMB      222             0.0000000000
     24926       222  POPC      C214           17.6251454984       17.7372942791       -2.0398121304  MEMB      222             0.0000000000
     24927       222  POPC      H14R           16.6601634028       17.8141014479       -1.4946232162  MEMB      222             0.0000000000
     24928       222  POPC      H14S           18.2383442619       18.6355291095       -1.8129147964  MEMB      222             0.0000000000
     24929       222  POPC      C215           18.5742166362       16.6305807463       -1.4787896246  MEMB      222             0.0000000000
     24930       222  POPC      H15R           19.5539972048       16.7503309064       -1.9887025643  MEMB      222             0.0000000000
     24931       222  POPC      H15S           18.0862937837       15.6771425189       -1.7740998925  MEMB      222             0.0000000000
     24932       222  POPC      C216           18.7755854623       16.6493491787        0.0553280920  MEMB      222             0.0000000000
     24933       222  POPC      H16R           17.8743852208       16.6098029679        0.7038620746  MEMB      222             0.0000000000
     24934       222  POPC      H16S           19.2483280773       17.6370653387        0.2430841302  MEMB      222             0.0000000000
     24935       222  POPC      C217           19.7562385250       15.5342836058        0.5213939581  MEMB      222             0.0000000000
     24936       222  POPC      H17R           20.0924775971       15.8570246120        1.5299101199  MEMB      222             0.0000000000
     24937       222  POPC      H17S           20.6628672624       15.4958691300       -0.1195965877  MEMB      222             0.0000000000
     24938       222  POPC      C218           19.1032569549       14.2163067352        0.4692208904  MEMB      222             0.0000000000
     24939       222  POPC      H18R           18.1163562292       14.3313983556        0.9663149311  MEMB      222             0.0000000000
     24940       222  POPC      H18S           19.6258588104       13.3532404451        0.9343275405  MEMB      222             0.0000000000
     24941       222  POPC      H18T           19.0232303729       13.8844928795       -0.5880468518  MEMB      222             0.0000000000
     24942       222  POPC      C33            21.2033322729       13.5874706634      -11.9207686070  MEMB      222             0.0000000000
     24943       222  POPC      H3X            20.1874965139       13.9813533609      -11.7033856212  MEMB      222             0.0000000000
     24944       222  POPC      H3Y            21.9640140892       14.3836082803      -12.0685827373  MEMB      222             0.0000000000
     24945       222  POPC      C34            21.8182375954       12.8761478248      -10.6838619645  MEMB      222             0.0000000000
     24946       222  POPC      H4X            22.5043116666       12.0835907037      -11.0519326496  MEMB      222             0.0000000000
     24947       222  POPC      H4Y            21.0583390712       12.2526334802      -10.1660733678  MEMB      222             0.0000000000
     24948       222  POPC      C35            22.4198705336       13.9300625281       -9.7170177423  MEMB      222             0.0000000000
     24949       222  POPC      H5X            23.3667503347       14.3358568094      -10.1330357208  MEMB      222             0.0000000000
     24950       222  POPC      H5Y            22.6211582901       13.4045076819       -8.7591058857  MEMB      222             0.0000000000
     24951       222  POPC      C36            21.3903958540       14.9947382547       -9.3735353536  MEMB      222             0.0000000000
     24952       222  POPC      H6X            20.3942676984       14.5083016007       -9.2998528816  MEMB      222             0.0000000000
     24953       222  POPC      H6Y            21.2947693798       15.8205776091      -10.1105331504  MEMB      222             0.0000000000
     24954       222  POPC      C37            21.5636818272       15.6767665198       -7.9636111931  MEMB      222             0.0000000000
     24955       222  POPC      H7X            22.4506127572       16.3117575727       -7.7527538058  MEMB      222             0.0000000000
     24956       222  POPC      H7Y            21.6203227015       14.8141595267       -7.2657411319  MEMB      222             0.0000000000
     24957       222  POPC      C38            20.4188634163       16.5952216351       -7.5939175677  MEMB      222             0.0000000000
     24958       222  POPC      H8X            19.5100488006       15.9667988680       -7.4778918215  MEMB      222             0.0000000000
     24959       222  POPC      H8Y            20.3138731976       17.4535086504       -8.2915140894  MEMB      222             0.0000000000
     24960       222  POPC      C39            20.5221065972       17.1796298832       -6.0642252425  MEMB      222             0.0000000000
     24961       222  POPC      H9X            20.9455162253       16.4464201344       -5.3448864176  MEMB      222             0.0000000000
     24962       222  POPC      H9Y            19.4928774726       17.3356248233       -5.6760579389  MEMB      222             0.0000000000
     24963       222  POPC      C310           21.3116804947       18.4187370193       -5.8495307698  MEMB      222             0.0000000000
     24964       222  POPC      H10X           20.7304729007       19.2957622795       -6.2063864381  MEMB      222             0.0000000000
     24965       222  POPC      H10Y           22.2906384374       18.4798485910       -6.3712857578  MEMB      222             0.0000000000
     24966       222  POPC      C311           21.5371459771       18.5382445744       -4.3551618841  MEMB      222             0.0000000000
     24967       222  POPC      H11X           22.0866750660       17.6671857883       -3.9385130800  MEMB      222             0.0000000000
     24968       222  POPC      H11Y           20.5344643868       18.5149889854       -3.8772391324  MEMB      222             0.0000000000
     24969       222  POPC      C312           22.3159767509       19.7397319974       -3.9319680095  MEMB      222             0.0000000000
     24970       222  POPC      H12X           21.9810846649       20.5350287849       -4.6317333080  MEMB      222             0.0000000000
     24971       222  POPC      H12Y           23.4043759133       19.6225843958       -4.1216646437  MEMB      222             0.0000000000
     24972       222  POPC      C313           21.9783457781       20.1568311476       -2.5292774746  MEMB      222             0.0000000000
     24973       222  POPC      H13X           20.9412612410       20.5525552318       -2.5759502608  MEMB      222             0.0000000000
     24974       222  POPC      H13Y           22.6652670535       20.9805901676       -2.2396547671  MEMB      222             0.0000000000
     24975       222  POPC      C314           22.0166452030       19.0986137189       -1.4200584765  MEMB      222             0.0000000000
     24976       222  POPC      H14X           22.7438440644       18.3034517150       -1.6906510322  MEMB      222             0.0000000000
     24977       222  POPC      H14Y           20.9837545389       18.7040627730       -1.3114887971  MEMB      222             0.0000000000
     24978       222  POPC      C315           22.4348996854       19.6133007299        0.0155872757  MEMB      222             0.0000000000
     24979       222  POPC      H15X           23.5214940613       19.8384733005       -0.0385488886  MEMB      222             0.0000000000
     24980       222  POPC      H15Y           22.2644304753       18.7097678828        0.6391964865  MEMB      222             0.0000000000
     24981       222  POPC      C316           21.5834758254       20.7254124738        0.4751191226  MEMB      222             0.0000000000
     24982       222  POPC      H16X           21.2305007667       21.3630472162       -0.3634233703  MEMB      222             0.0000000000
     24983       222  POPC      H16Y           22.0902562868       21.3039402163        1.2768673333  MEMB      222             0.0000000000
     24984       222  POPC      H16Z           20.6158654959       20.2886401799        0.8026568676  MEMB      222             0.0000000000
     24985       223  POPC      N              22.6693176867        9.8096781563      -18.9831884344  MEMB      223             0.0000000000
     24986       223  POPC      C12            21.6967588553       10.4918410725      -18.0048131435  MEMB      223             0.0000000000
     24987       223  POPC      H12A           22.1729481784       10.8182243072      -17.0920603508  MEMB      223             0.0000000000
     24988       223  POPC      H12B           21.0244685575        9.7158325596      -17.6697958461  MEMB      223             0.0000000000
     24989       223  POPC      C13            23.9108248281       10.6284461034      -19.2026524356  MEMB      223             0.0000000000
     24990       223  POPC      H13A           24.3436075444       10.2641552887      -20.1226477478  MEMB      223             0.0000000000
     24991       223  POPC      H13B           23.6991890934       11.6427797551      -19.5071805005  MEMB      223             0.0000000000
     24992       223  POPC      H13C           24.5517126006       10.6717616462      -18.3344435216  MEMB      223             0.0000000000
     24993       223  POPC      C14            23.0696561269        8.5021913082      -18.3595523902  MEMB      223             0.0000000000
     24994       223  POPC      H14A           23.1582073157        8.7132208169      -17.3040785162  MEMB      223             0.0000000000
     24995       223  POPC      H14B           22.2862592508        7.7832685680      -18.5488656500  MEMB      223             0.0000000000
     24996       223  POPC      H14C           23.9285807976        8.0584587391      -18.8409566636  MEMB      223             0.0000000000
     24997       223  POPC      C15            22.1362536520        9.6582837522      -20.3780023227  MEMB      223             0.0000000000
     24998       223  POPC      H15A           22.8868286672        9.0669128827      -20.8813090453  MEMB      223             0.0000000000
     24999       223  POPC      H15B           22.0257148328       10.5973254517      -20.8999045663  MEMB      223             0.0000000000
     25000       223  POPC      H15C           21.2075961835        9.1143669664      -20.2877266831  MEMB      223             0.0000000000
     25001       223  POPC      C11            20.8003820829       11.7678243313      -18.4386180444  MEMB      223             0.0000000000
     25002       223  POPC      H11A           20.6749958347       12.3228795018      -17.4844099693  MEMB      223             0.0000000000
     25003       223  POPC      H11B           19.8609383468       11.3088449601      -18.8142569811  MEMB      223             0.0000000000
     25004       223  POPC      P              22.2132273289       13.9791135930      -19.1363788931  MEMB      223             0.0000000000
     25005       223  POPC      O13            21.3531572638       14.5048264417      -18.0894659990  MEMB      223             0.0000000000
     25006       223  POPC      O14            22.4766401151       14.7374691358      -20.4092026906  MEMB      223             0.0000000000
     25007       223  POPC      O12            21.5179628898       12.5734610849      -19.4575872613  MEMB      223             0.0000000000
     25008       223  POPC      O11            23.7198587263       13.6627243205      -18.5405384308  MEMB      223             0.0000000000
     25009       223  POPC      C1             24.6833627510       14.6760552810      -18.4789700684  MEMB      223             0.0000000000
     25010       223  POPC      HA             24.1961599058       15.6745253595      -18.4824216247  MEMB      223             0.0000000000
     25011       223  POPC      HB             25.2801548410       14.6325689360      -19.4150625910  MEMB      223             0.0000000000
     25012       223  POPC      C2             25.4917139841       14.6566854925      -17.1677646891  MEMB      223             0.0000000000
     25013       223  POPC      HS             26.3420713542       15.3715399222      -17.1817836870  MEMB      223             0.0000000000
     25014       223  POPC      O21            25.9031268916       13.3412699614      -16.8385280482  MEMB      223             0.0000000000
     25015       223  POPC      C21            26.7507185993       12.6636082442      -17.6361538282  MEMB      223             0.0000000000
     25016       223  POPC      O22            27.3504742612       13.0372513804      -18.6427539882  MEMB      223             0.0000000000
     25017       223  POPC      C22            26.7478251716       11.2108082556      -17.1567743367  MEMB      223             0.0000000000
     25018       223  POPC      H2R            27.7642367703       10.9395525978      -16.7994944722  MEMB      223             0.0000000000
     25019       223  POPC      H2S            26.6052911381       10.6142521976      -18.0831252332  MEMB      223             0.0000000000
     25020       223  POPC      C3             24.6071201194       15.2283810789      -16.0114120387  MEMB      223             0.0000000000
     25021       223  POPC      HX             24.2719451547       16.1877791663      -16.4603375363  MEMB      223             0.0000000000
     25022       223  POPC      HY             25.3106904879       15.4340497269      -15.1765409737  MEMB      223             0.0000000000
     25023       223  POPC      O31            23.4945099199       14.3392948963      -15.6671685209  MEMB      223             0.0000000000
     25024       223  POPC      C31            23.0866061787       14.4130303954      -14.4569317318  MEMB      223             0.0000000000
     25025       223  POPC      O32            23.4368366975       15.2039233311      -13.5701524758  MEMB      223             0.0000000000
     25026       223  POPC      C32            21.9077941467       13.5083834031      -14.2945809204  MEMB      223             0.0000000000
     25027       223  POPC      H2X            22.3640826685       12.5196050821      -14.0744920572  MEMB      223             0.0000000000
     25028       223  POPC      H2Y            21.2534500409       13.4721798149      -15.1917122499  MEMB      223             0.0000000000
     25029       223  POPC      C23            25.5979117940       10.8880670484      -16.1705689633  MEMB      223             0.0000000000
     25030       223  POPC      H3R            24.6636023851       11.2035984168      -16.6822592178  MEMB      223             0.0000000000
     25031       223  POPC      H3S            25.7431250916       11.5364335078      -15.2801450282  MEMB      223             0.0000000000
     25032       223  POPC      C24            25.1175243314        9.5000404920      -15.7683973863  MEMB      223             0.0000000000
     25033       223  POPC      H4R            25.8410064342        8.9597909207      -15.1210761201  MEMB      223             0.0000000000
     25034       223  POPC      H4S            25.0756869915        8.8943514870      -16.6988335075  MEMB      223             0.0000000000
     25035       223  POPC      C25            23.7636229261        9.5439009760      -15.0342483924  MEMB      223             0.0000000000
     25036       223  POPC      H5R            23.3473302878        8.5239104236      -15.1779161738  MEMB      223             0.0000000000
     25037       223  POPC      H5S            23.0601688005       10.3079885396      -15.4287650134  MEMB      223             0.0000000000
     25038       223  POPC      C26            24.0428405178       10.1011145267      -13.6000986719  MEMB      223             0.0000000000
     25039       223  POPC      H6R            23.0225328856       10.3652827742      -13.2486611015  MEMB      223             0.0000000000
     25040       223  POPC      H6S            24.5054593779       11.1105762236      -13.5641564874  MEMB      223             0.0000000000
     25041       223  POPC      C27            24.6766722075        9.0385270752      -12.6763535515  MEMB      223             0.0000000000
     25042       223  POPC      H7R            25.7031419329        8.7827882604      -13.0158804877  MEMB      223             0.0000000000
     25043       223  POPC      H7S            24.0659400943        8.1208676850      -12.5376859482  MEMB      223             0.0000000000
     25044       223  POPC      C28            25.0263534494        9.7467588791      -11.3540704806  MEMB      223             0.0000000000
     25045       223  POPC      H8R            24.1071830708       10.1246539060      -10.8574398534  MEMB      223             0.0000000000
     25046       223  POPC      H8S            25.6161622286       10.6222793173      -11.7003515137  MEMB      223             0.0000000000
     25047       223  POPC      C29            25.8327832241        8.8664235625      -10.4018863133  MEMB      223             0.0000000000
     25048       223  POPC      H91            26.7327221958        8.3960099972      -10.8247586698  MEMB      223             0.0000000000
     25049       223  POPC      C210           25.6350612524        8.6809081808       -9.0992483325  MEMB      223             0.0000000000
     25050       223  POPC      H101           26.1178862335        7.8465126229       -8.5694705756  MEMB      223             0.0000000000
     25051       223  POPC      C211           24.5536203509        9.3809470315       -8.3087561559  MEMB      223             0.0000000000
     25052       223  POPC      H11R           23.5718542875        8.8609030574       -8.3054840323  MEMB      223             0.0000000000
     25053       223  POPC      H11S           24.2446139464       10.3675443666       -8.7155253014  MEMB      223             0.0000000000
     25054       223  POPC      C212           24.9972000331        9.5394840160       -6.8220095208  MEMB      223             0.0000000000
     25055       223  POPC      H12R           25.2352898009        8.5423429023       -6.3938227532  MEMB      223             0.0000000000
     25056       223  POPC      H12S           24.1425461825        9.9372179218       -6.2340504749  MEMB      223             0.0000000000
     25057       223  POPC      C213           26.1113985448       10.6152478937       -6.7006530337  MEMB      223             0.0000000000
     25058       223  POPC      H13R           25.7012478269       11.6376033381       -6.8451746186  MEMB      223             0.0000000000
     25059       223  POPC      H13S           26.8805646636       10.3194234477       -7.4457652874  MEMB      223             0.0000000000
     25060       223  POPC      C214           26.7229868590       10.4037449267       -5.3404565175  MEMB      223             0.0000000000
     25061       223  POPC      H14R           27.5978758249       11.0784142502       -5.2233609688  MEMB      223             0.0000000000
     25062       223  POPC      H14S           27.1252618204        9.3722446615       -5.2482443327  MEMB      223             0.0000000000
     25063       223  POPC      C215           25.7594709928       10.7199254674       -4.1666679073  MEMB      223             0.0000000000
     25064       223  POPC      H15R           24.9593163352        9.9493358725       -4.1829429280  MEMB      223             0.0000000000
     25065       223  POPC      H15S           25.1925910656       11.6744026265       -4.1226043238  MEMB      223             0.0000000000
     25066       223  POPC      C216           26.6296650041       10.6464395609       -2.8092323446  MEMB      223             0.0000000000
     25067       223  POPC      H16R           27.2915271058       11.5309846865       -2.9268730947  MEMB      223             0.0000000000
     25068       223  POPC      H16S           27.2526039949        9.7269123541       -2.8363995826  MEMB      223             0.0000000000
     25069       223  POPC      C217           25.8056666092       10.9067431374       -1.5625958473  MEMB      223             0.0000000000
     25070       223  POPC      H17R           25.0185091000       10.1350188807       -1.4242278138  MEMB      223             0.0000000000
     25071       223  POPC      H17S           25.2831989461       11.8734338544       -1.7264786819  MEMB      223             0.0000000000
     25072       223  POPC      C218           26.5016827480       11.0384957534       -0.2818474708  MEMB      223             0.0000000000
     25073       223  POPC      H18R           25.8882333703       11.5317568866        0.5021768202  MEMB      223             0.0000000000
     25074       223  POPC      H18S           27.2748424575       11.8307410400       -0.3761475098  MEMB      223             0.0000000000
     25075       223  POPC      H18T           26.9932604184       10.1159607480        0.0944530015  MEMB      223             0.0000000000
     25076       223  POPC      C33            21.1316472389       13.8909256478      -12.9857135973  MEMB      223             0.0000000000
     25077       223  POPC      H3X            20.6323179203       14.8823965050      -13.0301735064  MEMB      223             0.0000000000
     25078       223  POPC      H3Y            21.7609062518       13.8688225616      -12.0703637327  MEMB      223             0.0000000000
     25079       223  POPC      C34            19.8359002860       13.0238799520      -12.8416779214  MEMB      223             0.0000000000
     25080       223  POPC      H4X            19.3138463363       12.9415651144      -13.8189216147  MEMB      223             0.0000000000
     25081       223  POPC      H4Y            19.1529676321       13.5826798113      -12.1666472985  MEMB      223             0.0000000000
     25082       223  POPC      C35            19.9459080344       11.6139787935      -12.2012318132  MEMB      223             0.0000000000
     25083       223  POPC      H5X            20.2658440216       10.9302729775      -13.0164052040  MEMB      223             0.0000000000
     25084       223  POPC      H5Y            18.9409124481       11.2447963702      -11.9045682393  MEMB      223             0.0000000000
     25085       223  POPC      C36            20.7554992398       11.5823367398      -10.8987570199  MEMB      223             0.0000000000
     25086       223  POPC      H6X            21.8151961594       11.9058241418      -10.9807274567  MEMB      223             0.0000000000
     25087       223  POPC      H6Y            20.6959038361       10.5119661130      -10.6070791893  MEMB      223             0.0000000000
     25088       223  POPC      C37            20.0286555829       12.1499172408       -9.6919903124  MEMB      223             0.0000000000
     25089       223  POPC      H7X            19.3548599345       11.3775348815       -9.2633347959  MEMB      223             0.0000000000
     25090       223  POPC      H7Y            19.2526759070       12.9038725161       -9.9444347927  MEMB      223             0.0000000000
     25091       223  POPC      C38            20.9877485302       12.6037424239       -8.6642339792  MEMB      223             0.0000000000
     25092       223  POPC      H8X            21.5623854545       11.6740655091       -8.4646984768  MEMB      223             0.0000000000
     25093       223  POPC      H8Y            20.5209435237       12.9254800009       -7.7087769032  MEMB      223             0.0000000000
     25094       223  POPC      C39            22.0242956492       13.7130817224       -8.9483272905  MEMB      223             0.0000000000
     25095       223  POPC      H9X            21.4629642507       14.6710130409       -8.9882720181  MEMB      223             0.0000000000
     25096       223  POPC      H9Y            22.5831365539       13.7001964562       -9.9084584955  MEMB      223             0.0000000000
     25097       223  POPC      C310           23.0629337149       13.8973597896       -7.7815466265  MEMB      223             0.0000000000
     25098       223  POPC      H10X           23.7979046390       14.6567346107       -8.1243126490  MEMB      223             0.0000000000
     25099       223  POPC      H10Y           23.6335759729       12.9681685996       -7.5687271027  MEMB      223             0.0000000000
     25100       223  POPC      C311           22.5719101565       14.3131422445       -6.4269955677  MEMB      223             0.0000000000
     25101       223  POPC      H11X           21.8576953157       13.5474274154       -6.0556482464  MEMB      223             0.0000000000
     25102       223  POPC      H11Y           22.0336884213       15.2850387395       -6.4344310978  MEMB      223             0.0000000000
     25103       223  POPC      C312           23.6677667085       14.4422685932       -5.4020925144  MEMB      223             0.0000000000
     25104       223  POPC      H12X           24.5085257032       15.0582447713       -5.7868247368  MEMB      223             0.0000000000
     25105       223  POPC      H12Y           24.2322587369       13.4912897254       -5.2957494414  MEMB      223             0.0000000000
     25106       223  POPC      C313           23.2840413399       15.0212757291       -4.0077823714  MEMB      223             0.0000000000
     25107       223  POPC      H13X           22.8663586866       16.0447123230       -4.1193145766  MEMB      223             0.0000000000
     25108       223  POPC      H13Y           24.2844496007       15.0734786848       -3.5273871515  MEMB      223             0.0000000000
     25109       223  POPC      C314           22.2587217833       14.3470617697       -3.2321821457  MEMB      223             0.0000000000
     25110       223  POPC      H14X           22.4085695319       13.2473484324       -3.1822095574  MEMB      223             0.0000000000
     25111       223  POPC      H14Y           21.3524700383       14.4303966127       -3.8694299559  MEMB      223             0.0000000000
     25112       223  POPC      C315           21.9020963346       14.8215690159       -1.8321890843  MEMB      223             0.0000000000
     25113       223  POPC      H15X           20.8093315714       15.0189535858       -1.7971745743  MEMB      223             0.0000000000
     25114       223  POPC      H15Y           22.3308387031       15.8121341239       -1.5689727463  MEMB      223             0.0000000000
     25115       223  POPC      C316           22.1910072959       13.8510478923       -0.6935462801  MEMB      223             0.0000000000
     25116       223  POPC      H16X           23.2416337104       13.5063053814       -0.8015191957  MEMB      223             0.0000000000
     25117       223  POPC      H16Y           21.4885155391       12.9930474356       -0.7618199138  MEMB      223             0.0000000000
     25118       223  POPC      H16Z           22.0009298164       14.2209818264        0.3366672759  MEMB      223             0.0000000000
     25119       224  POPE      N              25.6637216349        1.8030279749      -21.1047728303  MEMB      224             0.0000000000
     25120       224  POPE      HN1            24.8682682479        1.3148118167      -20.6459714285  MEMB      224             0.0000000000
     25121       224  POPE      HN2            25.9317163570        1.2220410075      -21.9246707784  MEMB      224             0.0000000000
     25122       224  POPE      HN3            26.4695589326        1.8459861343      -20.4487387148  MEMB      224             0.0000000000
     25123       224  POPE      C12            25.2014857346        3.2249483054      -21.3635482527  MEMB      224             0.0000000000
     25124       224  POPE      H12A           24.1078710566        3.1578687555      -21.1796236784  MEMB      224             0.0000000000
     25125       224  POPE      H12B           25.4683413026        3.4517906358      -22.4178970866  MEMB      224             0.0000000000
     25126       224  POPE      C11            25.9034511012        4.1735278646      -20.3067291252  MEMB      224             0.0000000000
     25127       224  POPE      H11A           25.7884784985        5.2307227161      -20.6283522512  MEMB      224             0.0000000000
     25128       224  POPE      H11B           27.0045902102        4.0303672889      -20.3430422184  MEMB      224             0.0000000000
     25129       224  POPE      P              26.0578293138        4.7216208257      -17.8784040333  MEMB      224             0.0000000000
     25130       224  POPE      O13            25.2531466596        5.9989271382      -17.8136396290  MEMB      224             0.0000000000
     25131       224  POPE      O14            27.4909478692        4.8600464068      -17.9891001780  MEMB      224             0.0000000000
     25132       224  POPE      O11            25.6772178529        3.9879307107      -16.5404801341  MEMB      224             0.0000000000
     25133       224  POPE      O12            25.4133382348        3.8288829360      -19.0033258144  MEMB      224             0.0000000000
     25134       224  POPE      C1             25.5027498765        2.5843402358      -16.4674793441  MEMB      224             0.0000000000
     25135       224  POPE      HA             25.9385471469        1.9898719752      -17.2987489309  MEMB      224             0.0000000000
     25136       224  POPE      HB             24.4156856967        2.3652896029      -16.5355181950  MEMB      224             0.0000000000
     25137       224  POPE      C2             25.9928061750        2.0492505958      -15.0678276936  MEMB      224             0.0000000000
     25138       224  POPE      HS             25.6752942489        0.9879404303      -14.9834024077  MEMB      224             0.0000000000
     25139       224  POPE      O21            25.4945326842        2.9850699925      -14.0138412877  MEMB      224             0.0000000000
     25140       224  POPE      C21            25.5872385591        2.4338908326      -12.7374602722  MEMB      224             0.0000000000
     25141       224  POPE      O22            26.0482209659        1.3412213436      -12.5446930529  MEMB      224             0.0000000000
     25142       224  POPE      C22            24.9511228848        3.3649060864      -11.7194212044  MEMB      224             0.0000000000
     25143       224  POPE      H2R            24.6971816734        4.3363865108      -12.1948796827  MEMB      224             0.0000000000
     25144       224  POPE      H2S            25.6612435668        3.6709252985      -10.9216734753  MEMB      224             0.0000000000
     25145       224  POPE      C3             27.5782925882        2.0369676636      -15.0502193276  MEMB      224             0.0000000000
     25146       224  POPE      HX             27.8726684439        1.4068405685      -15.9165930578  MEMB      224             0.0000000000
     25147       224  POPE      HY             27.8738051689        1.5486477196      -14.0970474248  MEMB      224             0.0000000000
     25148       224  POPE      O31            28.0540821388        3.3494902996      -15.0978893308  MEMB      224             0.0000000000
     25149       224  POPE      C31            29.3552462515        3.4489962980      -14.8789912236  MEMB      224             0.0000000000
     25150       224  POPE      O32            30.1735498443        2.5336016951      -14.8473021560  MEMB      224             0.0000000000
     25151       224  POPE      C32            29.6093026950        4.9162789074      -14.7081520720  MEMB      224             0.0000000000
     25152       224  POPE      H2X            29.4319030962        5.4676928410      -15.6561991496  MEMB      224             0.0000000000
     25153       224  POPE      H2Y            30.7153792312        4.9832537959      -14.6279639901  MEMB      224             0.0000000000
     25154       224  POPE      C23            23.6199255923        2.8155256119      -11.1688304487  MEMB      224             0.0000000000
     25155       224  POPE      H3R            23.9244125033        2.3224152283      -10.2209642219  MEMB      224             0.0000000000
     25156       224  POPE      H3S            23.2432118070        1.9805774286      -11.7975352559  MEMB      224             0.0000000000
     25157       224  POPE      C24            22.4662820441        3.7854822494      -10.8428033600  MEMB      224             0.0000000000
     25158       224  POPE      H4R            22.0662040933        4.2472906816      -11.7706997875  MEMB      224             0.0000000000
     25159       224  POPE      H4S            22.9384417107        4.6369224268      -10.3076067776  MEMB      224             0.0000000000
     25160       224  POPE      C25            21.2451785362        3.2299290353      -10.0144859892  MEMB      224             0.0000000000
     25161       224  POPE      H5R            20.8128542058        2.4513720892      -10.6787641267  MEMB      224             0.0000000000
     25162       224  POPE      H5S            20.5075616694        4.0457456383       -9.8573688840  MEMB      224             0.0000000000
     25163       224  POPE      C26            21.5480127589        2.6001815125       -8.6289972089  MEMB      224             0.0000000000
     25164       224  POPE      H6R            22.0635362300        1.6411346403       -8.8498721429  MEMB      224             0.0000000000
     25165       224  POPE      H6S            20.5549116263        2.2323890533       -8.2931407170  MEMB      224             0.0000000000
     25166       224  POPE      C27            22.1517242713        3.5695092244       -7.6500484696  MEMB      224             0.0000000000
     25167       224  POPE      H7R            21.4580321480        4.4370885663       -7.6296044603  MEMB      224             0.0000000000
     25168       224  POPE      H7S            23.1402912164        3.8465611538       -8.0746639951  MEMB      224             0.0000000000
     25169       224  POPE      C28            22.3753627601        3.1526164799       -6.1648288516  MEMB      224             0.0000000000
     25170       224  POPE      H8R            21.3822318155        3.2213511651       -5.6715870555  MEMB      224             0.0000000000
     25171       224  POPE      H8S            22.9894040745        3.9435067491       -5.6834069750  MEMB      224             0.0000000000
     25172       224  POPE      C29            23.0421741300        1.7790509355       -6.0783348674  MEMB      224             0.0000000000
     25173       224  POPE      H91            22.3180490715        0.9510347504       -6.0840208487  MEMB      224             0.0000000000
     25174       224  POPE      C210           24.3656735649        1.5967488843       -5.9953774825  MEMB      224             0.0000000000
     25175       224  POPE      H101           24.6531510631        0.5367752488       -6.0571239919  MEMB      224             0.0000000000
     25176       224  POPE      C211           25.4576658226        2.6831754365       -6.0919450808  MEMB      224             0.0000000000
     25177       224  POPE      H11R           25.1525216241        3.6071283488       -6.6281531600  MEMB      224             0.0000000000
     25178       224  POPE      H11S           26.3687626890        2.3993861222       -6.6608796025  MEMB      224             0.0000000000
     25179       224  POPE      C212           26.0030651789        3.0536279375       -4.6997457850  MEMB      224             0.0000000000
     25180       224  POPE      H12R           25.1276903419        3.4436479977       -4.1376750199  MEMB      224             0.0000000000
     25181       224  POPE      H12S           26.6488490101        3.9503027681       -4.5846003338  MEMB      224             0.0000000000
     25182       224  POPE      C213           26.5410656143        1.8041175685       -3.9782271238  MEMB      224             0.0000000000
     25183       224  POPE      H13R           27.3961125838        1.4534630648       -4.5948770085  MEMB      224             0.0000000000
     25184       224  POPE      H13S           25.8584949592        0.9281783646       -3.9443326921  MEMB      224             0.0000000000
     25185       224  POPE      C214           27.0987243455        1.9890740076       -2.5258540283  MEMB      224             0.0000000000
     25186       224  POPE      H14R           28.0000667799        2.6271415946       -2.6473967552  MEMB      224             0.0000000000
     25187       224  POPE      H14S           27.4904445315        1.0690654421       -2.0416416141  MEMB      224             0.0000000000
     25188       224  POPE      C215           25.9977710243        2.5323638166       -1.6083660642  MEMB      224             0.0000000000
     25189       224  POPE      H15R           25.6015990392        3.5133387249       -1.9475667424  MEMB      224             0.0000000000
     25190       224  POPE      H15S           26.3900458593        2.6211439209       -0.5727221951  MEMB      224             0.0000000000
     25191       224  POPE      C216           24.6182411749        1.7037393533       -1.5953250512  MEMB      224             0.0000000000
     25192       224  POPE      H16R           24.7704613256        0.7040196146       -1.1352044182  MEMB      224             0.0000000000
     25193       224  POPE      H16S           24.2119701979        1.5990135112       -2.6240601623  MEMB      224             0.0000000000
     25194       224  POPE      C217           23.4268909318        2.3430937072       -0.7262241229  MEMB      224             0.0000000000
     25195       224  POPE      H17R           22.5324011096        1.7537367298       -1.0209581178  MEMB      224             0.0000000000
     25196       224  POPE      H17S           23.2137736200        3.3481469008       -1.1490370830  MEMB      224             0.0000000000
     25197       224  POPE      C218           23.5968962204        2.4619917728        0.7711040339  MEMB      224             0.0000000000
     25198       224  POPE      H18R           22.9177510835        3.2540724667        1.1527993126  MEMB      224             0.0000000000
     25199       224  POPE      H18S           24.6248627881        2.8320855880        0.9726890015  MEMB      224             0.0000000000
     25200       224  POPE      H18T           23.4503674971        1.4868684671        1.2829490977  MEMB      224             0.0000000000
     25201       224  POPE      C33            29.0387301271        5.4895108310      -13.4346217662  MEMB      224             0.0000000000
     25202       224  POPE      H3X            29.6258821453        6.3881740127      -13.1483035601  MEMB      224             0.0000000000
     25203       224  POPE      H3Y            29.1134290922        4.7104852732      -12.6460404578  MEMB      224             0.0000000000
     25204       224  POPE      C34            27.5717580802        6.0040912027      -13.5415364973  MEMB      224             0.0000000000
     25205       224  POPE      H4X            26.8718913272        5.1517887389      -13.6760276682  MEMB      224             0.0000000000
     25206       224  POPE      H4Y            27.5621682002        6.6553809620      -14.4415645520  MEMB      224             0.0000000000
     25207       224  POPE      C35            27.1333488022        6.8094739060      -12.2640782867  MEMB      224             0.0000000000
     25208       224  POPE      H5X            28.0430919134        7.4055188653      -12.0373205883  MEMB      224             0.0000000000
     25209       224  POPE      H5Y            26.9503613070        6.0679200506      -11.4572730850  MEMB      224             0.0000000000
     25210       224  POPE      C36            25.8788428511        7.7088629671      -12.2721411609  MEMB      224             0.0000000000
     25211       224  POPE      H6X            25.0296405112        6.9938030688      -12.3153364149  MEMB      224             0.0000000000
     25212       224  POPE      H6Y            25.8434842393        8.3334719113      -13.1902552864  MEMB      224             0.0000000000
     25213       224  POPE      C37            25.5429882022        8.5111545140      -10.9790890120  MEMB      224             0.0000000000
     25214       224  POPE      H7X            24.7295564749        9.2422589886      -11.1743736118  MEMB      224             0.0000000000
     25215       224  POPE      H7Y            26.4616704981        9.1079225669      -10.7941244675  MEMB      224             0.0000000000
     25216       224  POPE      C38            25.2977252975        7.7419554891       -9.6525411468  MEMB      224             0.0000000000
     25217       224  POPE      H8X            26.1679698675        7.0723000686       -9.4835532824  MEMB      224             0.0000000000
     25218       224  POPE      H8Y            24.4580956921        7.0864571534       -9.9682383977  MEMB      224             0.0000000000
     25219       224  POPE      C39            24.8432304788        8.5388946730       -8.4318316610  MEMB      224             0.0000000000
     25220       224  POPE      H9X            23.8331470955        8.9088599347       -8.7096417528  MEMB      224             0.0000000000
     25221       224  POPE      H9Y            25.6732353809        9.2615190678       -8.2794266294  MEMB      224             0.0000000000
     25222       224  POPE      C310           24.7055147137        7.6371956549       -7.1421316495  MEMB      224             0.0000000000
     25223       224  POPE      H10X           25.6678162205        7.1368984567       -6.9013009403  MEMB      224             0.0000000000
     25224       224  POPE      H10Y           23.9677858551        6.8443941118       -7.3902105233  MEMB      224             0.0000000000
     25225       224  POPE      C311           24.3036941409        8.3207926322       -5.8185313935  MEMB      224             0.0000000000
     25226       224  POPE      H11X           23.4149921083        8.9716085593       -5.9633375885  MEMB      224             0.0000000000
     25227       224  POPE      H11Y           25.2269198750        8.8668747453       -5.5291027156  MEMB      224             0.0000000000
     25228       224  POPE      C312           23.8399936914        7.2805930686       -4.7555165251  MEMB      224             0.0000000000
     25229       224  POPE      H12X           24.5414498841        6.4410237767       -4.5621156441  MEMB      224             0.0000000000
     25230       224  POPE      H12Y           22.8941827769        6.7980412873       -5.0824816426  MEMB      224             0.0000000000
     25231       224  POPE      C313           23.5020950798        8.0226521296       -3.4719158917  MEMB      224             0.0000000000
     25232       224  POPE      H13X           22.6068307119        8.6775839849       -3.5342621617  MEMB      224             0.0000000000
     25233       224  POPE      H13Y           24.2702988760        8.7974393335       -3.2624190802  MEMB      224             0.0000000000
     25234       224  POPE      C314           23.5122343491        7.1475198960       -2.2376323284  MEMB      224             0.0000000000
     25235       224  POPE      H14X           22.9357221556        6.2014748787       -2.3210194369  MEMB      224             0.0000000000
     25236       224  POPE      H14Y           22.9356829635        7.6464767745       -1.4295777642  MEMB      224             0.0000000000
     25237       224  POPE      C315           24.9044221948        6.6209513079       -1.8029893052  MEMB      224             0.0000000000
     25238       224  POPE      H15X           25.1438547483        5.8282679211       -2.5436957779  MEMB      224             0.0000000000
     25239       224  POPE      H15Y           24.7145249148        6.1100373886       -0.8348842653  MEMB      224             0.0000000000
     25240       224  POPE      C316           26.0829040402        7.6653423460       -1.7854981433  MEMB      224             0.0000000000
     25241       224  POPE      H16X           26.9248613073        7.1889782697       -1.2391398807  MEMB      224             0.0000000000
     25242       224  POPE      H16Y           25.6606923752        8.4862941919       -1.1673578951  MEMB      224             0.0000000000
     25243       224  POPE      H16Z           26.4858975540        8.0149803270       -2.7600077924  MEMB      224             0.0000000000
     25244       225  POPC      N              16.3365808701      -24.7277958216      -17.7933600626  MEMB      225             0.0000000000
     25245       225  POPC      C12            16.2390997179      -23.3464758647      -18.3455657324  MEMB      225             0.0000000000
     25246       225  POPC      H12A           17.1819253968      -22.8539257701      -18.1588191504  MEMB      225             0.0000000000
     25247       225  POPC      H12B           15.4392815515      -22.9048761798      -17.7696484961  MEMB      225             0.0000000000
     25248       225  POPC      C13            14.9936989623      -25.3387043823      -18.1029370776  MEMB      225             0.0000000000
     25249       225  POPC      H13A           14.1648060122      -24.6900485057      -17.8608998071  MEMB      225             0.0000000000
     25250       225  POPC      H13B           14.9835188584      -25.5353997710      -19.1648256267  MEMB      225             0.0000000000
     25251       225  POPC      H13C           14.8160631773      -26.2602202948      -17.5684711718  MEMB      225             0.0000000000
     25252       225  POPC      C14            17.4128105061      -25.4544269987      -18.5608365828  MEMB      225             0.0000000000
     25253       225  POPC      H14A           17.1629665960      -25.4754238082      -19.6113303546  MEMB      225             0.0000000000
     25254       225  POPC      H14B           18.3859672938      -24.9914636992      -18.4899076761  MEMB      225             0.0000000000
     25255       225  POPC      H14C           17.4926037206      -26.4767133279      -18.2217733591  MEMB      225             0.0000000000
     25256       225  POPC      C15            16.5447178380      -24.7603391875      -16.3160958615  MEMB      225             0.0000000000
     25257       225  POPC      H15A           17.5192989057      -24.3625759410      -16.0744844189  MEMB      225             0.0000000000
     25258       225  POPC      H15B           16.4248601347      -25.6956334570      -15.7895423822  MEMB      225             0.0000000000
     25259       225  POPC      H15C           15.7363108022      -24.2035403594      -15.8657035690  MEMB      225             0.0000000000
     25260       225  POPC      C11            15.9059920170      -23.1966563572      -19.8462266579  MEMB      225             0.0000000000
     25261       225  POPC      H11A           16.6273682644      -23.8205878004      -20.4160045830  MEMB      225             0.0000000000
     25262       225  POPC      H11B           16.3179157107      -22.2021005536      -20.1209967102  MEMB      225             0.0000000000
     25263       225  POPC      P              13.3932102559      -22.3818141780      -20.0091082893  MEMB      225             0.0000000000
     25264       225  POPC      O13            12.1897808633      -23.2554677568      -20.1377099818  MEMB      225             0.0000000000
     25265       225  POPC      O14            13.6826927716      -21.3441747735      -21.0251687823  MEMB      225             0.0000000000
     25266       225  POPC      O12            14.6021488753      -23.4444319970      -20.2571377715  MEMB      225             0.0000000000
     25267       225  POPC      O11            13.6763102529      -21.7023329301      -18.6058532013  MEMB      225             0.0000000000
     25268       225  POPC      C1             12.8768162616      -22.1221120635      -17.5291337795  MEMB      225             0.0000000000
     25269       225  POPC      HA             13.2877876913      -23.0580451236      -17.0938720645  MEMB      225             0.0000000000
     25270       225  POPC      HB             11.7837836469      -22.1801757071      -17.7194732142  MEMB      225             0.0000000000
     25271       225  POPC      C2             12.9245035523      -21.0621659623      -16.4346545862  MEMB      225             0.0000000000
     25272       225  POPC      HS             12.6377927152      -20.0994047013      -16.9092157852  MEMB      225             0.0000000000
     25273       225  POPC      O21            14.1759534339      -21.0614483288      -15.8469493213  MEMB      225             0.0000000000
     25274       225  POPC      C21            14.5790130892      -19.8221574426      -15.4968715062  MEMB      225             0.0000000000
     25275       225  POPC      O22            13.9182010755      -18.8148603286      -15.6765280116  MEMB      225             0.0000000000
     25276       225  POPC      C22            15.8386191658      -19.8612988661      -14.5970373307  MEMB      225             0.0000000000
     25277       225  POPC      H2R            16.1175129011      -18.8351362059      -14.2752771326  MEMB      225             0.0000000000
     25278       225  POPC      H2S            16.7371365564      -20.1441877167      -15.1860715218  MEMB      225             0.0000000000
     25279       225  POPC      C3             11.8630831602      -21.3813867223      -15.2745692120  MEMB      225             0.0000000000
     25280       225  POPC      HX             10.8004104420      -21.3822983269      -15.5986785235  MEMB      225             0.0000000000
     25281       225  POPC      HY             12.0387644381      -20.4967051072      -14.6258817683  MEMB      225             0.0000000000
     25282       225  POPC      O31            12.0679930924      -22.6254449388      -14.6142874391  MEMB      225             0.0000000000
     25283       225  POPC      C31            11.8017469628      -22.6251523227      -13.3052660929  MEMB      225             0.0000000000
     25284       225  POPC      O32            11.4423423510      -21.6604260872      -12.6392793533  MEMB      225             0.0000000000
     25285       225  POPC      C32            11.8569568153      -24.1068672759      -12.7703262738  MEMB      225             0.0000000000
     25286       225  POPC      H2X            12.0472889762      -24.8865863632      -13.5385272366  MEMB      225             0.0000000000
     25287       225  POPC      H2Y            10.8983620760      -24.3540705232      -12.2660369360  MEMB      225             0.0000000000
     25288       225  POPC      C23            15.6615829422      -20.6825027804      -13.2827809989  MEMB      225             0.0000000000
     25289       225  POPC      H3R            16.5936791910      -20.9534288662      -12.7423029461  MEMB      225             0.0000000000
     25290       225  POPC      H3S            14.9881714629      -21.5568510339      -13.4106596307  MEMB      225             0.0000000000
     25291       225  POPC      C24            14.7973485248      -19.8570402527      -12.1889949150  MEMB      225             0.0000000000
     25292       225  POPC      H4R            13.8773813840      -19.5306880583      -12.7195377058  MEMB      225             0.0000000000
     25293       225  POPC      H4S            15.3968472436      -18.9369898745      -12.0203823903  MEMB      225             0.0000000000
     25294       225  POPC      C25            14.6715945426      -20.6151474151      -10.8862326820  MEMB      225             0.0000000000
     25295       225  POPC      H5R            15.6980914594      -20.7932164270      -10.5003360024  MEMB      225             0.0000000000
     25296       225  POPC      H5S            14.1689128723      -21.5896690901      -11.0649490987  MEMB      225             0.0000000000
     25297       225  POPC      C26            13.8686891368      -19.9172733771       -9.8294923969  MEMB      225             0.0000000000
     25298       225  POPC      H6R            12.8948007617      -19.7386673015      -10.3334389335  MEMB      225             0.0000000000
     25299       225  POPC      H6S            14.3305002492      -18.9386833681       -9.5776731675  MEMB      225             0.0000000000
     25300       225  POPC      C27            13.6576437211      -20.7408073742       -8.4746932211  MEMB      225             0.0000000000
     25301       225  POPC      H7R            13.5385481429      -20.0759703938       -7.5925766114  MEMB      225             0.0000000000
     25302       225  POPC      H7S            14.5861992770      -21.3195272797       -8.2818490681  MEMB      225             0.0000000000
     25303       225  POPC      C28            12.5637110738      -21.8173914029       -8.5364914575  MEMB      225             0.0000000000
     25304       225  POPC      H8R            12.5804788328      -22.0838396145       -7.4580458125  MEMB      225             0.0000000000
     25305       225  POPC      H8S            13.0946373099      -22.6242789492       -9.0854645399  MEMB      225             0.0000000000
     25306       225  POPC      C29            11.1245436576      -21.4231280620       -8.9779673046  MEMB      225             0.0000000000
     25307       225  POPC      H91            10.9938726568      -21.4812345534      -10.0686325244  MEMB      225             0.0000000000
     25308       225  POPC      C210           10.0739992917      -21.1194385574       -8.1750387391  MEMB      225             0.0000000000
     25309       225  POPC      H101            9.0416008651      -21.0359578073       -8.5454228549  MEMB      225             0.0000000000
     25310       225  POPC      C211           10.1961607332      -21.0964080382       -6.6458313973  MEMB      225             0.0000000000
     25311       225  POPC      H11R            9.6077018566      -20.2267342244       -6.2829204469  MEMB      225             0.0000000000
     25312       225  POPC      H11S           11.2284941854      -20.9262774161       -6.2721143224  MEMB      225             0.0000000000
     25313       225  POPC      C212            9.6990568038      -22.3700988539       -5.8932050922  MEMB      225             0.0000000000
     25314       225  POPC      H12R           10.1600316477      -23.2889057158       -6.3146520974  MEMB      225             0.0000000000
     25315       225  POPC      H12S            8.6164402204      -22.4530716728       -6.1285305681  MEMB      225             0.0000000000
     25316       225  POPC      C213            9.9657092221      -22.4675334619       -4.3851838862  MEMB      225             0.0000000000
     25317       225  POPC      H13R            9.2632051453      -23.2546717223       -4.0370142386  MEMB      225             0.0000000000
     25318       225  POPC      H13S            9.6899420527      -21.5054731212       -3.9027801703  MEMB      225             0.0000000000
     25319       225  POPC      C214           11.4700777988      -22.7649167445       -3.9950130407  MEMB      225             0.0000000000
     25320       225  POPC      H14R           12.0824423865      -22.0154874875       -4.5406197530  MEMB      225             0.0000000000
     25321       225  POPC      H14S           11.7487161114      -23.7501376499       -4.4263148583  MEMB      225             0.0000000000
     25322       225  POPC      C215           11.6779398871      -22.7902434868       -2.5015216148  MEMB      225             0.0000000000
     25323       225  POPC      H15R           11.4688432302      -21.7791516001       -2.0912861074  MEMB      225             0.0000000000
     25324       225  POPC      H15S           12.7542457573      -22.8047810207       -2.2264297137  MEMB      225             0.0000000000
     25325       225  POPC      C216           10.9180271700      -23.7534237074       -1.7015492362  MEMB      225             0.0000000000
     25326       225  POPC      H16R            9.8973355438      -23.3250253978       -1.6067625056  MEMB      225             0.0000000000
     25327       225  POPC      H16S           11.2370154582      -23.8393498100       -0.6408024158  MEMB      225             0.0000000000
     25328       225  POPC      C217           10.8506359704      -25.2049022405       -2.1883296285  MEMB      225             0.0000000000
     25329       225  POPC      H17R           10.2880433453      -25.2824198715       -3.1432117041  MEMB      225             0.0000000000
     25330       225  POPC      H17S           10.4027954531      -25.8516432689       -1.4037988071  MEMB      225             0.0000000000
     25331       225  POPC      C218           12.3188335279      -25.7549301280       -2.5168495561  MEMB      225             0.0000000000
     25332       225  POPC      H18R           12.9251834392      -25.4179114467       -1.6490477853  MEMB      225             0.0000000000
     25333       225  POPC      H18S           12.7007137508      -25.2652586961       -3.4381044597  MEMB      225             0.0000000000
     25334       225  POPC      H18T           12.3404314187      -26.8563040459       -2.6611751279  MEMB      225             0.0000000000
     25335       225  POPC      C33            13.0440600533      -24.1616374597      -11.7952490104  MEMB      225             0.0000000000
     25336       225  POPC      H3X            12.8578940600      -23.5687444529      -10.8743039565  MEMB      225             0.0000000000
     25337       225  POPC      H3Y            13.8608323017      -23.5485646719      -12.2326800269  MEMB      225             0.0000000000
     25338       225  POPC      C34            13.4389899516      -25.5756772797      -11.3279296600  MEMB      225             0.0000000000
     25339       225  POPC      H4X            13.6942607293      -26.2578825169      -12.1668298954  MEMB      225             0.0000000000
     25340       225  POPC      H4Y            12.6992772364      -26.1496760925      -10.7298724449  MEMB      225             0.0000000000
     25341       225  POPC      C35            14.7872063877      -25.6064986466      -10.4612901170  MEMB      225             0.0000000000
     25342       225  POPC      H5X            15.0534527695      -26.6791412551      -10.3478385900  MEMB      225             0.0000000000
     25343       225  POPC      H5Y            14.6899136743      -25.1597570266       -9.4487300116  MEMB      225             0.0000000000
     25344       225  POPC      C36            15.9979273863      -24.8696463383      -11.0224457672  MEMB      225             0.0000000000
     25345       225  POPC      H6X            15.7764804501      -23.7824012630      -10.9660518661  MEMB      225             0.0000000000
     25346       225  POPC      H6Y            16.0521273537      -25.2491260442      -12.0652205660  MEMB      225             0.0000000000
     25347       225  POPC      C37            17.3126401666      -25.2528925666      -10.3904961400  MEMB      225             0.0000000000
     25348       225  POPC      H7X            18.0226216083      -24.4730264816      -10.7398608884  MEMB      225             0.0000000000
     25349       225  POPC      H7Y            17.7496275068      -26.2282006696      -10.6940365798  MEMB      225             0.0000000000
     25350       225  POPC      C38            17.3226219202      -25.0119926787       -8.8717178583  MEMB      225             0.0000000000
     25351       225  POPC      H8X            18.4180190064      -25.0361606100       -8.6877564421  MEMB      225             0.0000000000
     25352       225  POPC      H8Y            16.6750612829      -25.7665972831       -8.3761796033  MEMB      225             0.0000000000
     25353       225  POPC      C39            16.8296391904      -23.5915267782       -8.4740998122  MEMB      225             0.0000000000
     25354       225  POPC      H9X            15.7474604490      -23.5083357625       -8.7113540464  MEMB      225             0.0000000000
     25355       225  POPC      H9Y            17.3580980551      -22.8768943061       -9.1406973197  MEMB      225             0.0000000000
     25356       225  POPC      C310           17.1131273188      -23.2054084491       -6.9378176973  MEMB      225             0.0000000000
     25357       225  POPC      H10X           16.8321134906      -22.1475627240       -6.7472532400  MEMB      225             0.0000000000
     25358       225  POPC      H10Y           18.1735845259      -23.3290690710       -6.6304761940  MEMB      225             0.0000000000
     25359       225  POPC      C311           16.3564384478      -24.1378784315       -5.9112683161  MEMB      225             0.0000000000
     25360       225  POPC      H11X           16.5273334099      -25.1872312410       -6.2337202437  MEMB      225             0.0000000000
     25361       225  POPC      H11Y           15.2908622139      -23.8264736983       -5.9548030519  MEMB      225             0.0000000000
     25362       225  POPC      C312           16.7780834540      -23.9478590647       -4.4495880486  MEMB      225             0.0000000000
     25363       225  POPC      H12X           17.2680749747      -22.9508086286       -4.4605366637  MEMB      225             0.0000000000
     25364       225  POPC      H12Y           17.3896470019      -24.7985331790       -4.0799052836  MEMB      225             0.0000000000
     25365       225  POPC      C313           15.5711067662      -23.9961575097       -3.4915368877  MEMB      225             0.0000000000
     25366       225  POPC      H13X           15.2953071717      -25.0720666331       -3.5175233237  MEMB      225             0.0000000000
     25367       225  POPC      H13Y           14.6637468084      -23.4038502949       -3.7368751711  MEMB      225             0.0000000000
     25368       225  POPC      C314           15.9337762695      -23.5707608849       -2.0033473242  MEMB      225             0.0000000000
     25369       225  POPC      H14X           16.7538682115      -24.1720224032       -1.5558495004  MEMB      225             0.0000000000
     25370       225  POPC      H14Y           15.0712765111      -23.5971730851       -1.3035495407  MEMB      225             0.0000000000
     25371       225  POPC      C315           16.5672217083      -22.1493485680       -1.9829831445  MEMB      225             0.0000000000
     25372       225  POPC      H15X           17.5485240143      -22.1342113065       -2.5036930690  MEMB      225             0.0000000000
     25373       225  POPC      H15Y           16.6853773800      -21.8161352098       -0.9297358621  MEMB      225             0.0000000000
     25374       225  POPC      C316           15.7402182701      -21.0753751016       -2.6830792559  MEMB      225             0.0000000000
     25375       225  POPC      H16X           15.1800215326      -20.5807865590       -1.8609580055  MEMB      225             0.0000000000
     25376       225  POPC      H16Y           15.0856646626      -21.4677213740       -3.4905096413  MEMB      225             0.0000000000
     25377       225  POPC      H16Z           16.4400284404      -20.4316708400       -3.2577359965  MEMB      225             0.0000000000
     25378       226  POPE      N              -1.4021627818       27.6829664219      -18.9517991591  MEMB      226             0.0000000000
     25379       226  POPE      HN1            -0.7612360301       27.3744747305      -18.1930859400  MEMB      226             0.0000000000
     25380       226  POPE      HN2            -2.3273168469       27.6052572980      -18.4831295676  MEMB      226             0.0000000000
     25381       226  POPE      HN3            -1.2735286910       27.0052575181      -19.7301074748  MEMB      226             0.0000000000
     25382       226  POPE      C12            -1.2071567273       29.1271060451      -19.2790887421  MEMB      226             0.0000000000
     25383       226  POPE      H12A           -0.1830271736       29.3248483253      -19.6616823718  MEMB      226             0.0000000000
     25384       226  POPE      H12B           -1.2209862711       29.5879865144      -18.2682875999  MEMB      226             0.0000000000
     25385       226  POPE      C11            -2.3856482649       29.4527536317      -20.2719114673  MEMB      226             0.0000000000
     25386       226  POPE      H11A           -2.0565932237       28.8949814129      -21.1746482543  MEMB      226             0.0000000000
     25387       226  POPE      H11B           -2.3843484366       30.5383611504      -20.5080799885  MEMB      226             0.0000000000
     25388       226  POPE      P              -4.4809848959       29.7560947511      -18.6948043269  MEMB      226             0.0000000000
     25389       226  POPE      O13            -5.9432851759       29.6315552005      -18.9045769619  MEMB      226             0.0000000000
     25390       226  POPE      O14            -3.9252356897       31.0783751542      -18.4998955611  MEMB      226             0.0000000000
     25391       226  POPE      O11            -4.0965685299       28.7658866728      -17.5066318096  MEMB      226             0.0000000000
     25392       226  POPE      O12            -3.6576534335       28.9931429402      -19.8912919687  MEMB      226             0.0000000000
     25393       226  POPE      C1             -4.3401584268       27.3882466717      -17.6357613003  MEMB      226             0.0000000000
     25394       226  POPE      HA             -3.4947870248       26.7734922431      -17.2592705243  MEMB      226             0.0000000000
     25395       226  POPE      HB             -4.4733496905       27.0308759981      -18.6792492942  MEMB      226             0.0000000000
     25396       226  POPE      C2             -5.6735014667       26.9922944543      -16.9355117871  MEMB      226             0.0000000000
     25397       226  POPE      HS             -6.4613486422       26.9783488817      -17.7187253236  MEMB      226             0.0000000000
     25398       226  POPE      O21            -5.9260899055       28.0149743759      -16.0015527930  MEMB      226             0.0000000000
     25399       226  POPE      C21            -7.1484496862       28.3229483132      -15.7739242079  MEMB      226             0.0000000000
     25400       226  POPE      O22            -8.1280110794       27.7643908372      -16.1828803748  MEMB      226             0.0000000000
     25401       226  POPE      C22            -7.1271204262       29.6461044065      -14.9559309855  MEMB      226             0.0000000000
     25402       226  POPE      H2R            -7.8221913539       30.4055300224      -15.3736270633  MEMB      226             0.0000000000
     25403       226  POPE      H2S            -6.0838533918       30.0279777178      -14.9652954609  MEMB      226             0.0000000000
     25404       226  POPE      C3             -5.6527948009       25.5916316581      -16.2770077003  MEMB      226             0.0000000000
     25405       226  POPE      HX             -5.3020848594       24.7824098587      -16.9526430731  MEMB      226             0.0000000000
     25406       226  POPE      HY             -6.6998103159       25.3795504789      -15.9718828030  MEMB      226             0.0000000000
     25407       226  POPE      O31            -4.6985230812       25.7138836553      -15.2360962929  MEMB      226             0.0000000000
     25408       226  POPE      C31            -4.8621192793       24.9067461389      -14.2158483835  MEMB      226             0.0000000000
     25409       226  POPE      O32            -5.8425323470       24.2157137444      -13.9807748401  MEMB      226             0.0000000000
     25410       226  POPE      C32            -3.7212521068       24.9441594580      -13.2009721934  MEMB      226             0.0000000000
     25411       226  POPE      H2X            -3.2798563242       25.9530725311      -13.3478915265  MEMB      226             0.0000000000
     25412       226  POPE      H2Y            -2.9158267295       24.3178191468      -13.6406408796  MEMB      226             0.0000000000
     25413       226  POPE      C23            -7.6884214746       29.3360251464      -13.5222073332  MEMB      226             0.0000000000
     25414       226  POPE      H3R            -8.4799872610       28.5564666825      -13.5164394316  MEMB      226             0.0000000000
     25415       226  POPE      H3S            -8.0656654038       30.2816447687      -13.0774474384  MEMB      226             0.0000000000
     25416       226  POPE      C24            -6.7758505583       28.7223809081      -12.3574394016  MEMB      226             0.0000000000
     25417       226  POPE      H4R            -6.2941991766       27.7372816928      -12.5360792995  MEMB      226             0.0000000000
     25418       226  POPE      H4S            -7.5090564906       28.4892814049      -11.5559442275  MEMB      226             0.0000000000
     25419       226  POPE      C25            -5.7300771249       29.6703898432      -11.7836507648  MEMB      226             0.0000000000
     25420       226  POPE      H5R            -6.1736651589       30.6065765488      -11.3822714991  MEMB      226             0.0000000000
     25421       226  POPE      H5S            -5.0310328065       29.8957738583      -12.6172329594  MEMB      226             0.0000000000
     25422       226  POPE      C26            -4.9159354495       28.9641660779      -10.6485218634  MEMB      226             0.0000000000
     25423       226  POPE      H6R            -4.3385879160       29.7687036866      -10.1448254852  MEMB      226             0.0000000000
     25424       226  POPE      H6S            -4.2657085741       28.1838173444      -11.0986128831  MEMB      226             0.0000000000
     25425       226  POPE      C27            -5.7262481469       28.2597270267       -9.5196150887  MEMB      226             0.0000000000
     25426       226  POPE      H7R            -6.1582812014       27.3085769842       -9.8977447035  MEMB      226             0.0000000000
     25427       226  POPE      H7S            -6.5862527604       28.8563992268       -9.1471971160  MEMB      226             0.0000000000
     25428       226  POPE      C28            -4.7843350632       27.8474928717       -8.3450692652  MEMB      226             0.0000000000
     25429       226  POPE      H8R            -3.8854252739       27.4293235605       -8.8464838527  MEMB      226             0.0000000000
     25430       226  POPE      H8S            -5.2722626686       26.9443111954       -7.9202039668  MEMB      226             0.0000000000
     25431       226  POPE      C29            -4.6549498136       28.9276001996       -7.3462184567  MEMB      226             0.0000000000
     25432       226  POPE      H91            -5.5414204229       29.0675398336       -6.7101473516  MEMB      226             0.0000000000
     25433       226  POPE      C210           -3.5152535067       29.6667946167       -7.1837382702  MEMB      226             0.0000000000
     25434       226  POPE      H101           -3.6569013025       30.4093344104       -6.3846324849  MEMB      226             0.0000000000
     25435       226  POPE      C211           -2.1541454003       29.7708023463       -7.7627318471  MEMB      226             0.0000000000
     25436       226  POPE      H11R           -2.0878824434       30.7669085660       -8.2502791380  MEMB      226             0.0000000000
     25437       226  POPE      H11S           -2.0405185631       29.0527625420       -8.6028680165  MEMB      226             0.0000000000
     25438       226  POPE      C212           -1.0886181538       29.4827512023       -6.7251109319  MEMB      226             0.0000000000
     25439       226  POPE      H12R           -1.5105128809       29.6773772667       -5.7159299325  MEMB      226             0.0000000000
     25440       226  POPE      H12S           -0.2819726476       30.2382542962       -6.8385092611  MEMB      226             0.0000000000
     25441       226  POPE      C213           -0.5127497457       28.0382540096       -6.8305533774  MEMB      226             0.0000000000
     25442       226  POPE      H13R           -0.4708295503       27.6285415663       -7.8623966975  MEMB      226             0.0000000000
     25443       226  POPE      H13S           -1.3210232997       27.3615879596       -6.4796433927  MEMB      226             0.0000000000
     25444       226  POPE      C214            0.7813210782       27.8581345110       -6.1220325253  MEMB      226             0.0000000000
     25445       226  POPE      H14R            1.4126333004       28.6428025590       -6.5911405363  MEMB      226             0.0000000000
     25446       226  POPE      H14S            1.1416580087       26.8417033013       -6.3891380111  MEMB      226             0.0000000000
     25447       226  POPE      C215            0.6755555098       27.9972550907       -4.5722454953  MEMB      226             0.0000000000
     25448       226  POPE      H15R           -0.4044003739       27.8667715047       -4.3464344190  MEMB      226             0.0000000000
     25449       226  POPE      H15S            0.8338790513       29.0793815902       -4.3766516061  MEMB      226             0.0000000000
     25450       226  POPE      C216            1.4519501911       26.8614934754       -3.8304176952  MEMB      226             0.0000000000
     25451       226  POPE      H16R            2.5039741437       26.8253239646       -4.1857454276  MEMB      226             0.0000000000
     25452       226  POPE      H16S            1.0990506690       25.8398586067       -4.0874100499  MEMB      226             0.0000000000
     25453       226  POPE      C217            1.4258260742       27.1784612954       -2.3284770426  MEMB      226             0.0000000000
     25454       226  POPE      H17R            0.3970797410       27.2778876258       -1.9209040268  MEMB      226             0.0000000000
     25455       226  POPE      H17S            1.7863189893       28.2196915026       -2.1863309511  MEMB      226             0.0000000000
     25456       226  POPE      C218            2.1115633258       26.0899198700       -1.4853484067  MEMB      226             0.0000000000
     25457       226  POPE      H18R            1.5815224464       25.1216498290       -1.6111692427  MEMB      226             0.0000000000
     25458       226  POPE      H18S            2.0434562984       26.3767793519       -0.4141820520  MEMB      226             0.0000000000
     25459       226  POPE      H18T            3.1970685888       26.0731397213       -1.7213937874  MEMB      226             0.0000000000
     25460       226  POPE      C33            -4.0582046218       24.5294755556      -11.8532515795  MEMB      226             0.0000000000
     25461       226  POPE      H3X            -4.2822375516       23.4436838552      -11.7812347752  MEMB      226             0.0000000000
     25462       226  POPE      H3Y            -4.8682731209       25.2257188789      -11.5477104115  MEMB      226             0.0000000000
     25463       226  POPE      C34            -3.0140990934       24.8435013489      -10.8435170524  MEMB      226             0.0000000000
     25464       226  POPE      H4X            -2.8326695794       25.9385705023      -10.8907161923  MEMB      226             0.0000000000
     25465       226  POPE      H4Y            -2.0955942729       24.3310392869      -11.2013610584  MEMB      226             0.0000000000
     25466       226  POPE      C35            -3.3107443628       24.4843478321       -9.3703557557  MEMB      226             0.0000000000
     25467       226  POPE      H5X            -3.4466945461       23.3829965606       -9.3168407710  MEMB      226             0.0000000000
     25468       226  POPE      H5Y            -4.2323644443       25.0102417571       -9.0411553794  MEMB      226             0.0000000000
     25469       226  POPE      C36            -2.0580387573       24.6779759024       -8.5727842601  MEMB      226             0.0000000000
     25470       226  POPE      H6X            -1.7874290008       25.7522979148       -8.6559892435  MEMB      226             0.0000000000
     25471       226  POPE      H6Y            -1.2050725272       24.1175573604       -9.0117611650  MEMB      226             0.0000000000
     25472       226  POPE      C37            -2.0900535316       24.4245427098       -7.0591608716  MEMB      226             0.0000000000
     25473       226  POPE      H7X            -1.1040496133       24.6967552576       -6.6255500158  MEMB      226             0.0000000000
     25474       226  POPE      H7Y            -2.3819669880       23.3834258737       -6.8038503054  MEMB      226             0.0000000000
     25475       226  POPE      C38            -3.0641447653       25.3100470209       -6.2807489820  MEMB      226             0.0000000000
     25476       226  POPE      H8X            -4.1055858392       24.9578715359       -6.4410412896  MEMB      226             0.0000000000
     25477       226  POPE      H8Y            -2.8929046302       26.2849333778       -6.7853225109  MEMB      226             0.0000000000
     25478       226  POPE      C39            -2.7325709807       25.4701440749       -4.7476811012  MEMB      226             0.0000000000
     25479       226  POPE      H9X            -1.6684879805       25.7728274130       -4.6455479011  MEMB      226             0.0000000000
     25480       226  POPE      H9Y            -2.8075206860       24.4684801513       -4.2729468172  MEMB      226             0.0000000000
     25481       226  POPE      C310           -3.4994566502       26.6140167115       -4.1212054132  MEMB      226             0.0000000000
     25482       226  POPE      H10X           -4.5613899064       26.4083459476       -4.3748159648  MEMB      226             0.0000000000
     25483       226  POPE      H10Y           -3.2514983551       27.5354776264       -4.6901927872  MEMB      226             0.0000000000
     25484       226  POPE      C311           -3.0957836567       26.8110443482       -2.6880968296  MEMB      226             0.0000000000
     25485       226  POPE      H11X           -3.4359634001       27.8365939181       -2.4295490014  MEMB      226             0.0000000000
     25486       226  POPE      H11Y           -1.9864459126       26.8708151245       -2.6772252471  MEMB      226             0.0000000000
     25487       226  POPE      C312           -3.5770617847       25.8841503367       -1.5569719718  MEMB      226             0.0000000000
     25488       226  POPE      H12X           -3.3587558101       24.8120017298       -1.7497437781  MEMB      226             0.0000000000
     25489       226  POPE      H12Y           -4.6847453710       25.9264352197       -1.6316021390  MEMB      226             0.0000000000
     25490       226  POPE      C313           -3.2663140200       26.3364933941       -0.1587964302  MEMB      226             0.0000000000
     25491       226  POPE      H13X           -3.7742345374       25.5753517706        0.4712834826  MEMB      226             0.0000000000
     25492       226  POPE      H13Y           -3.5939852700       27.3764166843        0.0545392522  MEMB      226             0.0000000000
     25493       226  POPE      C314           -1.8189076322       26.4038213741        0.1854293530  MEMB      226             0.0000000000
     25494       226  POPE      H14X           -1.0591961221       26.6695015706       -0.5804516894  MEMB      226             0.0000000000
     25495       226  POPE      H14Y           -1.5615990234       25.3513058706        0.4310390246  MEMB      226             0.0000000000
     25496       226  POPE      C315           -1.4139448355       27.2428034966        1.3990249581  MEMB      226             0.0000000000
     25497       226  POPE      H15X           -0.4957272031       26.9152780090        1.9318692705  MEMB      226             0.0000000000
     25498       226  POPE      H15Y           -2.2161554019       27.0860972313        2.1515020484  MEMB      226             0.0000000000
     25499       226  POPE      C316           -1.2698583001       28.7585262201        1.2253994540  MEMB      226             0.0000000000
     25500       226  POPE      H16X           -0.6527511813       29.1314055230        2.0706562496  MEMB      226             0.0000000000
     25501       226  POPE      H16Y           -2.2564705135       29.2575793714        1.1164807566  MEMB      226             0.0000000000
     25502       226  POPE      H16Z           -0.7311661885       28.9660422061        0.2761516993  MEMB      226             0.0000000000
     25503       227  POPC      N             -28.3779874483       -7.8719042916      -20.0678444732  MEMB      227             0.0000000000
     25504       227  POPC      C12           -27.3011025369       -7.7354727864      -19.0258526871  MEMB      227             0.0000000000
     25505       227  POPC      H12A          -27.7087478419       -7.6063213131      -18.0341142198  MEMB      227             0.0000000000
     25506       227  POPC      H12B          -26.7561188291       -6.8941587303      -19.4278273824  MEMB      227             0.0000000000
     25507       227  POPC      C13           -27.6786773597       -8.1946275071      -21.3565483965  MEMB      227             0.0000000000
     25508       227  POPC      H13A          -27.1362064624       -9.1265092415      -21.4175542664  MEMB      227             0.0000000000
     25509       227  POPC      H13B          -28.3618435683       -8.1913612254      -22.1930131512  MEMB      227             0.0000000000
     25510       227  POPC      H13C          -26.9045590451       -7.4452562878      -21.4312713906  MEMB      227             0.0000000000
     25511       227  POPC      C14           -29.3053200643       -8.9209697385      -19.5573995271  MEMB      227             0.0000000000
     25512       227  POPC      H14A          -30.2218882303       -8.9989213925      -20.1232851009  MEMB      227             0.0000000000
     25513       227  POPC      H14B          -28.7898322298       -9.8655035854      -19.4650515685  MEMB      227             0.0000000000
     25514       227  POPC      H14C          -29.4855766706       -8.7448034420      -18.5072218911  MEMB      227             0.0000000000
     25515       227  POPC      C15           -29.1625902241       -6.6028732375      -20.1553525572  MEMB      227             0.0000000000
     25516       227  POPC      H15A          -29.6892759636       -6.5762110481      -19.2128604660  MEMB      227             0.0000000000
     25517       227  POPC      H15B          -29.8461914084       -6.7381061742      -20.9804595756  MEMB      227             0.0000000000
     25518       227  POPC      H15C          -28.5921702144       -5.7402130857      -20.4665417707  MEMB      227             0.0000000000
     25519       227  POPC      C11           -26.2109974578       -8.8122679456      -18.9172602784  MEMB      227             0.0000000000
     25520       227  POPC      H11A          -25.4239950464       -8.4396140514      -18.2272769218  MEMB      227             0.0000000000
     25521       227  POPC      H11B          -25.8095142436       -9.0761806141      -19.9189998993  MEMB      227             0.0000000000
     25522       227  POPC      P             -26.0265040534      -11.1886518888      -18.0195215946  MEMB      227             0.0000000000
     25523       227  POPC      O13           -24.6112880800      -10.8194637037      -17.7470598683  MEMB      227             0.0000000000
     25524       227  POPC      O14           -26.3199187195      -12.1282782384      -19.1422085589  MEMB      227             0.0000000000
     25525       227  POPC      O12           -26.8350369353       -9.9028352203      -18.3269671256  MEMB      227             0.0000000000
     25526       227  POPC      O11           -26.7198743176      -11.7696278002      -16.6839849296  MEMB      227             0.0000000000
     25527       227  POPC      C1            -28.0522009942      -11.4072318878      -16.3454273224  MEMB      227             0.0000000000
     25528       227  POPC      HA            -28.4099442390      -12.1640020259      -15.6149208196  MEMB      227             0.0000000000
     25529       227  POPC      HB            -28.6812344707      -11.1546873083      -17.2256881166  MEMB      227             0.0000000000
     25530       227  POPC      C2            -28.0523800775      -10.0980461001      -15.5034509672  MEMB      227             0.0000000000
     25531       227  POPC      HS            -27.9289811423       -9.1937180647      -16.1369212141  MEMB      227             0.0000000000
     25532       227  POPC      O21           -26.9556485249      -10.1443056000      -14.6334115191  MEMB      227             0.0000000000
     25533       227  POPC      C21           -26.4273521946       -9.0813215050      -14.1317150986  MEMB      227             0.0000000000
     25534       227  POPC      O22           -26.8040127417       -7.9582795266      -14.2106562207  MEMB      227             0.0000000000
     25535       227  POPC      C22           -25.3538456617       -9.6623567608      -13.1489438425  MEMB      227             0.0000000000
     25536       227  POPC      H2R           -24.9091462417      -10.5610786754      -13.6273393777  MEMB      227             0.0000000000
     25537       227  POPC      H2S           -25.7503098849       -9.9470541456      -12.1509033749  MEMB      227             0.0000000000
     25538       227  POPC      C3            -29.4610957868      -10.0486868307      -14.9032531047  MEMB      227             0.0000000000
     25539       227  POPC      HX            -29.6840752672      -11.0539238147      -14.4860003560  MEMB      227             0.0000000000
     25540       227  POPC      HY            -30.1228020142       -9.9387662159      -15.7889073038  MEMB      227             0.0000000000
     25541       227  POPC      O31           -29.6097566191       -8.9718808710      -13.9656752198  MEMB      227             0.0000000000
     25542       227  POPC      C31           -29.4219967931       -9.2622464679      -12.6784011247  MEMB      227             0.0000000000
     25543       227  POPC      O32           -28.7164615669      -10.2102341033      -12.2978627390  MEMB      227             0.0000000000
     25544       227  POPC      C32           -30.2279219906       -8.3196095631      -11.7872697586  MEMB      227             0.0000000000
     25545       227  POPC      H2X           -31.2544815669       -8.7308340364      -11.6805423116  MEMB      227             0.0000000000
     25546       227  POPC      H2Y           -30.4332567611       -7.3177110186      -12.2212720036  MEMB      227             0.0000000000
     25547       227  POPC      C23           -24.3597181678       -8.5359071589      -12.9794139236  MEMB      227             0.0000000000
     25548       227  POPC      H3R           -24.8648852329       -7.6611239743      -12.5169408958  MEMB      227             0.0000000000
     25549       227  POPC      H3S           -23.8399534632       -8.3628373429      -13.9459606503  MEMB      227             0.0000000000
     25550       227  POPC      C24           -23.1882594552       -8.9614455005      -12.1183861659  MEMB      227             0.0000000000
     25551       227  POPC      H4R           -22.2523439928       -8.6671110192      -12.6396829878  MEMB      227             0.0000000000
     25552       227  POPC      H4S           -23.2383242622      -10.0706763169      -12.0806826266  MEMB      227             0.0000000000
     25553       227  POPC      C25           -23.1006418199       -8.4077431981      -10.7216527493  MEMB      227             0.0000000000
     25554       227  POPC      H5R           -23.2514292001       -7.3071185329      -10.7071802518  MEMB      227             0.0000000000
     25555       227  POPC      H5S           -22.1171543793       -8.4709205403      -10.2087383297  MEMB      227             0.0000000000
     25556       227  POPC      C26           -24.2218059082       -8.8105402551       -9.7880685248  MEMB      227             0.0000000000
     25557       227  POPC      H6R           -24.0539924304       -9.8892270731       -9.5816838963  MEMB      227             0.0000000000
     25558       227  POPC      H6S           -25.2646710527       -8.5617133639      -10.0793390024  MEMB      227             0.0000000000
     25559       227  POPC      C27           -24.0675199850       -8.2899225342       -8.2578591898  MEMB      227             0.0000000000
     25560       227  POPC      H7R           -24.2116373119       -7.1883613147       -8.2685418268  MEMB      227             0.0000000000
     25561       227  POPC      H7S           -23.0678338676       -8.5783238190       -7.8682777210  MEMB      227             0.0000000000
     25562       227  POPC      C28           -25.1087619981       -8.7635850066       -7.2241545079  MEMB      227             0.0000000000
     25563       227  POPC      H8R           -26.0921961168       -8.3912652456       -7.5827019098  MEMB      227             0.0000000000
     25564       227  POPC      H8S           -24.7628255576       -8.1532764056       -6.3626598312  MEMB      227             0.0000000000
     25565       227  POPC      C29           -25.0516578811      -10.2491924808       -7.0401759655  MEMB      227             0.0000000000
     25566       227  POPC      H91           -24.0464262536      -10.6071155746       -6.7729672549  MEMB      227             0.0000000000
     25567       227  POPC      C210          -26.1041198506      -11.1173980142       -7.2019758463  MEMB      227             0.0000000000
     25568       227  POPC      H101          -25.8313452316      -12.1825533165       -7.2341950086  MEMB      227             0.0000000000
     25569       227  POPC      C211          -27.5309310384      -10.7830891175       -7.6176670279  MEMB      227             0.0000000000
     25570       227  POPC      H11R          -27.6484558246      -10.8373491725       -8.7211002070  MEMB      227             0.0000000000
     25571       227  POPC      H11S          -27.6824413039       -9.7064405174       -7.3892079525  MEMB      227             0.0000000000
     25572       227  POPC      C212          -28.7071350743      -11.4843302493       -6.9231525046  MEMB      227             0.0000000000
     25573       227  POPC      H12R          -28.4995516628      -12.5622582078       -6.7519755606  MEMB      227             0.0000000000
     25574       227  POPC      H12S          -29.6558407048      -11.3528402905       -7.4861702280  MEMB      227             0.0000000000
     25575       227  POPC      C213          -29.0778876776      -10.8712322601       -5.5461624063  MEMB      227             0.0000000000
     25576       227  POPC      H13R          -29.8811635943      -11.4123023402       -5.0018178010  MEMB      227             0.0000000000
     25577       227  POPC      H13S          -29.2968187534       -9.8251255749       -5.8495618589  MEMB      227             0.0000000000
     25578       227  POPC      C214          -27.9024156288      -10.5940718697       -4.5086729964  MEMB      227             0.0000000000
     25579       227  POPC      H14R          -28.2765992818      -10.1310699205       -3.5706229059  MEMB      227             0.0000000000
     25580       227  POPC      H14S          -27.0841601612       -9.9312566159       -4.8628689522  MEMB      227             0.0000000000
     25581       227  POPC      C215          -27.3286732111      -11.8996867086       -4.0042590555  MEMB      227             0.0000000000
     25582       227  POPC      H15R          -26.7971081454      -12.4660527883       -4.7986069238  MEMB      227             0.0000000000
     25583       227  POPC      H15S          -28.1548183278      -12.5210413289       -3.5971669307  MEMB      227             0.0000000000
     25584       227  POPC      C216          -26.2608292580      -11.7214225670       -2.9278212473  MEMB      227             0.0000000000
     25585       227  POPC      H16R          -26.7965856624      -11.5408547219       -1.9714323581  MEMB      227             0.0000000000
     25586       227  POPC      H16S          -25.7113665960      -10.7759548746       -3.1240421942  MEMB      227             0.0000000000
     25587       227  POPC      C217          -25.2378617322      -12.7968819861       -2.8524190065  MEMB      227             0.0000000000
     25588       227  POPC      H17R          -24.4348368674      -12.5438139839       -3.5772833739  MEMB      227             0.0000000000
     25589       227  POPC      H17S          -25.7369478894      -13.7610360383       -3.0883012078  MEMB      227             0.0000000000
     25590       227  POPC      C218          -24.5974928295      -12.9161204799       -1.4968898165  MEMB      227             0.0000000000
     25591       227  POPC      H18R          -25.2312412840      -13.5635289693       -0.8538136659  MEMB      227             0.0000000000
     25592       227  POPC      H18S          -24.5095104871      -11.8595677962       -1.1648105274  MEMB      227             0.0000000000
     25593       227  POPC      H18T          -23.5629945823      -13.3151437383       -1.4267819071  MEMB      227             0.0000000000
     25594       227  POPC      C33           -29.5522283745       -8.2303262993      -10.4201024824  MEMB      227             0.0000000000
     25595       227  POPC      H3X           -28.5294016964       -7.8854780862      -10.6832114854  MEMB      227             0.0000000000
     25596       227  POPC      H3Y           -29.6229045677       -9.2790974489      -10.0603740018  MEMB      227             0.0000000000
     25597       227  POPC      C34           -30.1701208002       -7.2741149379       -9.4196785194  MEMB      227             0.0000000000
     25598       227  POPC      H4X           -31.2637841646       -7.3358739151       -9.2341862239  MEMB      227             0.0000000000
     25599       227  POPC      H4Y           -29.9451157292       -6.2294600933       -9.7236361259  MEMB      227             0.0000000000
     25600       227  POPC      C35           -29.4600579498       -7.5397113084       -8.0901422447  MEMB      227             0.0000000000
     25601       227  POPC      H5X           -28.3812166978       -7.4298288652       -8.3316966802  MEMB      227             0.0000000000
     25602       227  POPC      H5Y           -29.5912921823       -8.6160911404       -7.8482643832  MEMB      227             0.0000000000
     25603       227  POPC      C36           -29.6065225405       -6.6338021747       -6.8794098851  MEMB      227             0.0000000000
     25604       227  POPC      H6X           -30.5764320756       -6.8844651378       -6.3990304696  MEMB      227             0.0000000000
     25605       227  POPC      H6Y           -29.6212808417       -5.5795992593       -7.2297807529  MEMB      227             0.0000000000
     25606       227  POPC      C37           -28.4614537952       -6.7720606690       -5.8528170015  MEMB      227             0.0000000000
     25607       227  POPC      H7X           -27.6873029589       -6.3138020823       -6.5047446693  MEMB      227             0.0000000000
     25608       227  POPC      H7Y           -28.1895444983       -7.8239357079       -5.6205557016  MEMB      227             0.0000000000
     25609       227  POPC      C38           -28.5758864523       -5.7762852044       -4.6588046901  MEMB      227             0.0000000000
     25610       227  POPC      H8X           -29.2821016488       -6.2617121726       -3.9517385309  MEMB      227             0.0000000000
     25611       227  POPC      H8Y           -29.2004260869       -4.8921798495       -4.9090617173  MEMB      227             0.0000000000
     25612       227  POPC      C39           -27.3221923845       -5.2568663606       -4.1209699670  MEMB      227             0.0000000000
     25613       227  POPC      H9X           -27.4465574677       -4.4382071782       -3.3802594567  MEMB      227             0.0000000000
     25614       227  POPC      H9Y           -26.7124470081       -4.7944614702       -4.9263973772  MEMB      227             0.0000000000
     25615       227  POPC      C310          -26.5407195188       -6.2768997174       -3.3256674836  MEMB      227             0.0000000000
     25616       227  POPC      H10X          -25.5036844437       -5.8878676331       -3.2388740216  MEMB      227             0.0000000000
     25617       227  POPC      H10Y          -26.5060850894       -7.2707009563       -3.8211276701  MEMB      227             0.0000000000
     25618       227  POPC      C311          -26.9181266059       -6.5204142577       -1.8845336568  MEMB      227             0.0000000000
     25619       227  POPC      H11X          -28.0161640013       -6.6839049726       -1.9281911066  MEMB      227             0.0000000000
     25620       227  POPC      H11Y          -26.7584287130       -5.5604782965       -1.3484932324  MEMB      227             0.0000000000
     25621       227  POPC      C312          -26.1843977084       -7.6457895420       -1.2573839362  MEMB      227             0.0000000000
     25622       227  POPC      H12X          -25.0767331805       -7.7278384547       -1.2832254949  MEMB      227             0.0000000000
     25623       227  POPC      H12Y          -26.4925779203       -8.6227030538       -1.6874861342  MEMB      227             0.0000000000
     25624       227  POPC      C313          -26.6067388809       -7.7590312009        0.2297066976  MEMB      227             0.0000000000
     25625       227  POPC      H13X          -26.2694132490       -6.8269918132        0.7315371780  MEMB      227             0.0000000000
     25626       227  POPC      H13Y          -26.0077962298       -8.5598582864        0.7137150617  MEMB      227             0.0000000000
     25627       227  POPC      C314          -28.0690109799       -7.9004377157        0.5621641106  MEMB      227             0.0000000000
     25628       227  POPC      H14X          -28.5920071309       -6.9398957600        0.3668299449  MEMB      227             0.0000000000
     25629       227  POPC      H14Y          -28.0374142470       -7.9560456936        1.6713205222  MEMB      227             0.0000000000
     25630       227  POPC      C315          -28.8085594446       -9.0293599349       -0.1870145306  MEMB      227             0.0000000000
     25631       227  POPC      H15X          -28.6769872951       -9.1133092034       -1.2869980384  MEMB      227             0.0000000000
     25632       227  POPC      H15Y          -29.9022747949       -8.8946563653       -0.0457281618  MEMB      227             0.0000000000
     25633       227  POPC      C316          -28.4051222987      -10.3812000262        0.4510609875  MEMB      227             0.0000000000
     25634       227  POPC      H16X          -29.1731406929      -11.1451074736        0.2042535112  MEMB      227             0.0000000000
     25635       227  POPC      H16Y          -28.4591708870      -10.2052404620        1.5467050724  MEMB      227             0.0000000000
     25636       227  POPC      H16Z          -27.3355783543      -10.5942715504        0.2389346936  MEMB      227             0.0000000000
     25637       228  POPC      N             -32.1049276050       -0.7623933426      -18.7500382067  MEMB      228             0.0000000000
     25638       228  POPC      C12           -31.4969182704       -2.1548919697      -19.1249234663  MEMB      228             0.0000000000
     25639       228  POPC      H12A          -32.2091040206       -2.6235032917      -19.7879428176  MEMB      228             0.0000000000
     25640       228  POPC      H12B          -31.5101752732       -2.7758156419      -18.2413635643  MEMB      228             0.0000000000
     25641       228  POPC      C13           -31.3398259591       -0.1684027464      -17.6283373852  MEMB      228             0.0000000000
     25642       228  POPC      H13A          -30.9812639472        0.7629880406      -18.0410655268  MEMB      228             0.0000000000
     25643       228  POPC      H13B          -32.0488141425        0.1548134813      -16.8804958911  MEMB      228             0.0000000000
     25644       228  POPC      H13C          -30.5939004858       -0.9131684519      -17.3931367293  MEMB      228             0.0000000000
     25645       228  POPC      C14           -32.1186213856        0.1184012803      -19.9095663551  MEMB      228             0.0000000000
     25646       228  POPC      H14A          -32.7999509660       -0.2418147633      -20.6661601886  MEMB      228             0.0000000000
     25647       228  POPC      H14B          -32.5118830005        1.0820610029      -19.6212866684  MEMB      228             0.0000000000
     25648       228  POPC      H14C          -31.1208117161        0.3257828781      -20.2670138234  MEMB      228             0.0000000000
     25649       228  POPC      C15           -33.5291223329       -0.8578949792      -18.3837415567  MEMB      228             0.0000000000
     25650       228  POPC      H15A          -34.0600278987       -1.6456582802      -18.8975201883  MEMB      228             0.0000000000
     25651       228  POPC      H15B          -34.0610950462        0.0378902699      -18.6683003708  MEMB      228             0.0000000000
     25652       228  POPC      H15C          -33.7781351892       -0.9907177500      -17.3412681371  MEMB      228             0.0000000000
     25653       228  POPC      C11           -30.0053276238       -2.1764595862      -19.6671368407  MEMB      228             0.0000000000
     25654       228  POPC      H11A          -30.1612794152       -1.5835058868      -20.5936388151  MEMB      228             0.0000000000
     25655       228  POPC      H11B          -29.6227759614       -3.1625726748      -20.0070725424  MEMB      228             0.0000000000
     25656       228  POPC      P             -27.8854203106       -0.7071001250      -19.1817635308  MEMB      228             0.0000000000
     25657       228  POPC      O13           -28.2079097536        0.0044014842      -20.4454276475  MEMB      228             0.0000000000
     25658       228  POPC      O14           -26.7615216372       -1.6196280347      -19.2337492938  MEMB      228             0.0000000000
     25659       228  POPC      O12           -29.1594921408       -1.5941201713      -18.7148635846  MEMB      228             0.0000000000
     25660       228  POPC      O11           -27.6856612781        0.2445902104      -17.9604521338  MEMB      228             0.0000000000
     25661       228  POPC      C1            -28.1987755887        1.5339591453      -17.8086321653  MEMB      228             0.0000000000
     25662       228  POPC      HA            -29.2754736030        1.5439765972      -18.0823875117  MEMB      228             0.0000000000
     25663       228  POPC      HB            -27.8006103325        2.1759114951      -18.6232993465  MEMB      228             0.0000000000
     25664       228  POPC      C2            -27.9334858208        2.2062853656      -16.3988822643  MEMB      228             0.0000000000
     25665       228  POPC      HS            -27.8484725549        3.2897191079      -16.6296741346  MEMB      228             0.0000000000
     25666       228  POPC      O21           -26.7861746277        1.6547290115      -15.8384693818  MEMB      228             0.0000000000
     25667       228  POPC      C21           -26.4455351960        2.2084261543      -14.7263210186  MEMB      228             0.0000000000
     25668       228  POPC      O22           -26.8240744143        3.3115862877      -14.3507038904  MEMB      228             0.0000000000
     25669       228  POPC      C22           -25.6608363507        1.2565468103      -13.9628089053  MEMB      228             0.0000000000
     25670       228  POPC      H2R           -24.9925668090        1.9042205591      -13.3559684074  MEMB      228             0.0000000000
     25671       228  POPC      H2S           -24.9264235694        0.7320462883      -14.6107733782  MEMB      228             0.0000000000
     25672       228  POPC      C3            -29.2483200491        1.9687439880      -15.5392419688  MEMB      228             0.0000000000
     25673       228  POPC      HX            -30.0872264306        2.4091986218      -16.1193772352  MEMB      228             0.0000000000
     25674       228  POPC      HY            -29.1713895172        2.5531042466      -14.5974742364  MEMB      228             0.0000000000
     25675       228  POPC      O31           -29.4863128390        0.5680989549      -15.1918961362  MEMB      228             0.0000000000
     25676       228  POPC      C31           -30.3423721445        0.4405769874      -14.2076999169  MEMB      228             0.0000000000
     25677       228  POPC      O32           -30.9584223258        1.3290945198      -13.6471495249  MEMB      228             0.0000000000
     25678       228  POPC      C32           -30.7319194902       -1.0074950203      -13.9061653596  MEMB      228             0.0000000000
     25679       228  POPC      H2X           -29.7387644547       -1.5006909188      -13.8374492993  MEMB      228             0.0000000000
     25680       228  POPC      H2Y           -31.1941062682       -1.5295110960      -14.7711527229  MEMB      228             0.0000000000
     25681       228  POPC      C23           -26.5000412820        0.3871429519      -13.1319906488  MEMB      228             0.0000000000
     25682       228  POPC      H3R           -25.9667372495       -0.5864893377      -13.0878532028  MEMB      228             0.0000000000
     25683       228  POPC      H3S           -27.4974204821        0.1839302212      -13.5772547085  MEMB      228             0.0000000000
     25684       228  POPC      C24           -26.7032559351        0.9741485736      -11.6617456217  MEMB      228             0.0000000000
     25685       228  POPC      H4R           -27.0975149428        2.0128210836      -11.6681050227  MEMB      228             0.0000000000
     25686       228  POPC      H4S           -25.6981308110        0.9887313573      -11.1886368282  MEMB      228             0.0000000000
     25687       228  POPC      C25           -27.6992949681        0.0557662298      -10.9271271470  MEMB      228             0.0000000000
     25688       228  POPC      H5R           -27.4784659399       -1.0161660627      -11.1182201057  MEMB      228             0.0000000000
     25689       228  POPC      H5S           -28.6589322877        0.0462647290      -11.4868830435  MEMB      228             0.0000000000
     25690       228  POPC      C26           -27.9704480900        0.3326021718       -9.4765962765  MEMB      228             0.0000000000
     25691       228  POPC      H6R           -27.0797611771        0.0654969725       -8.8686057565  MEMB      228             0.0000000000
     25692       228  POPC      H6S           -28.7813804838       -0.2940599588       -9.0476398418  MEMB      228             0.0000000000
     25693       228  POPC      C27           -28.2424065498        1.8499264941       -9.2176778889  MEMB      228             0.0000000000
     25694       228  POPC      H7R           -27.3326123017        2.4459417074       -9.4443075017  MEMB      228             0.0000000000
     25695       228  POPC      H7S           -28.2809373891        1.9052791699       -8.1087270179  MEMB      228             0.0000000000
     25696       228  POPC      C28           -29.6262209721        2.3451515939       -9.7441057597  MEMB      228             0.0000000000
     25697       228  POPC      H8R           -29.7675600068        1.7989850313      -10.7012088934  MEMB      228             0.0000000000
     25698       228  POPC      H8S           -29.5728107028        3.3917363693      -10.1130614368  MEMB      228             0.0000000000
     25699       228  POPC      C29           -30.8508075092        2.0931548532       -8.8311304673  MEMB      228             0.0000000000
     25700       228  POPC      H91           -31.3841055129        1.1514916344       -9.0282686519  MEMB      228             0.0000000000
     25701       228  POPC      C210          -31.3303181436        2.8879216404       -7.8192829770  MEMB      228             0.0000000000
     25702       228  POPC      H101          -32.2573197851        2.5579586231       -7.3275586938  MEMB      228             0.0000000000
     25703       228  POPC      C211          -30.5947031449        4.1706377317       -7.3414574571  MEMB      228             0.0000000000
     25704       228  POPC      H11R          -30.8818627569        5.1273337644       -7.8278651979  MEMB      228             0.0000000000
     25705       228  POPC      H11S          -29.5105351196        4.2137165752       -7.5802981578  MEMB      228             0.0000000000
     25706       228  POPC      C212          -30.5834372111        4.2307153097       -5.8312068359  MEMB      228             0.0000000000
     25707       228  POPC      H12R          -30.0338338091        3.3736853021       -5.3865086913  MEMB      228             0.0000000000
     25708       228  POPC      H12S          -31.6281069381        4.2720711810       -5.4553399421  MEMB      228             0.0000000000
     25709       228  POPC      C213          -29.8152536986        5.4303062605       -5.1379964667  MEMB      228             0.0000000000
     25710       228  POPC      H13R          -30.5812595718        6.2023021070       -4.9108871227  MEMB      228             0.0000000000
     25711       228  POPC      H13S          -29.1464455885        5.9654326173       -5.8455678115  MEMB      228             0.0000000000
     25712       228  POPC      C214          -28.9414318724        4.8936205874       -4.0023698914  MEMB      228             0.0000000000
     25713       228  POPC      H14R          -28.2659258888        5.7008946985       -3.6469542705  MEMB      228             0.0000000000
     25714       228  POPC      H14S          -28.2811957634        4.1390117595       -4.4808827295  MEMB      228             0.0000000000
     25715       228  POPC      C215          -29.7260160100        4.3919484570       -2.8104045444  MEMB      228             0.0000000000
     25716       228  POPC      H15R          -30.4236029714        3.5886151562       -3.1303241390  MEMB      228             0.0000000000
     25717       228  POPC      H15S          -30.3236272447        5.2597477658       -2.4581155206  MEMB      228             0.0000000000
     25718       228  POPC      C216          -28.8434182022        3.6540023959       -1.7905621409  MEMB      228             0.0000000000
     25719       228  POPC      H16R          -28.3637547379        4.4954544881       -1.2463170265  MEMB      228             0.0000000000
     25720       228  POPC      H16S          -28.0560883489        3.1779184281       -2.4132798989  MEMB      228             0.0000000000
     25721       228  POPC      C217          -29.5606282598        2.6328474258       -0.8677347796  MEMB      228             0.0000000000
     25722       228  POPC      H17R          -29.9494341398        1.8315340887       -1.5318495055  MEMB      228             0.0000000000
     25723       228  POPC      H17S          -30.3837740535        3.1593424230       -0.3390063249  MEMB      228             0.0000000000
     25724       228  POPC      C218          -28.6740113642        1.9731477980        0.1325248514  MEMB      228             0.0000000000
     25725       228  POPC      H18R          -29.2569948623        1.2263079782        0.7127673359  MEMB      228             0.0000000000
     25726       228  POPC      H18S          -28.2273971904        2.7125315929        0.8312145834  MEMB      228             0.0000000000
     25727       228  POPC      H18T          -27.8549603880        1.3495461008       -0.2853240959  MEMB      228             0.0000000000
     25728       228  POPC      C33           -31.3595492266       -1.1521476818      -12.5052722266  MEMB      228             0.0000000000
     25729       228  POPC      H3X           -32.2751005191       -0.5250067706      -12.4525333201  MEMB      228             0.0000000000
     25730       228  POPC      H3Y           -30.6688668772       -0.6596850222      -11.7878049583  MEMB      228             0.0000000000
     25731       228  POPC      C34           -31.6953122092       -2.5490350201      -12.1786945312  MEMB      228             0.0000000000
     25732       228  POPC      H4X           -30.7406131035       -3.1165533888      -12.1505250261  MEMB      228             0.0000000000
     25733       228  POPC      H4Y           -32.4043469640       -2.9913282249      -12.9107920839  MEMB      228             0.0000000000
     25734       228  POPC      C35           -32.3899380409       -2.7210809931      -10.8642536381  MEMB      228             0.0000000000
     25735       228  POPC      H5X           -32.6946903376       -3.7894540809      -10.8591607467  MEMB      228             0.0000000000
     25736       228  POPC      H5Y           -33.2593546124       -2.0346225312      -10.9491681879  MEMB      228             0.0000000000
     25737       228  POPC      C36           -31.5969317525       -2.2804857064       -9.6302948354  MEMB      228             0.0000000000
     25738       228  POPC      H6X           -31.5291695871       -1.1715980451       -9.6401554928  MEMB      228             0.0000000000
     25739       228  POPC      H6Y           -30.6031020425       -2.7724882577       -9.6977998197  MEMB      228             0.0000000000
     25740       228  POPC      C37           -32.2279143919       -2.6624574505       -8.3188418179  MEMB      228             0.0000000000
     25741       228  POPC      H7X           -32.0972813616       -3.7605997468       -8.2123562712  MEMB      228             0.0000000000
     25742       228  POPC      H7Y           -33.2935265451       -2.3498403292       -8.3514380905  MEMB      228             0.0000000000
     25743       228  POPC      C38           -31.8578126808       -1.8105917174       -7.0595534872  MEMB      228             0.0000000000
     25744       228  POPC      H8X           -32.4901244163       -2.0797659110       -6.1865997564  MEMB      228             0.0000000000
     25745       228  POPC      H8Y           -32.2242609648       -0.7724545212       -7.2089108503  MEMB      228             0.0000000000
     25746       228  POPC      C39           -30.3703598516       -1.7539285767       -6.6997172637  MEMB      228             0.0000000000
     25747       228  POPC      H9X           -29.6944566985       -1.6027289123       -7.5684024373  MEMB      228             0.0000000000
     25748       228  POPC      H9Y           -30.2681535916       -2.7550092635       -6.2288542384  MEMB      228             0.0000000000
     25749       228  POPC      C310          -29.8480245800       -0.6736845234       -5.6983231001  MEMB      228             0.0000000000
     25750       228  POPC      H10X          -29.9253340454        0.3540969701       -6.1130634841  MEMB      228             0.0000000000
     25751       228  POPC      H10Y          -28.7664435296       -0.8019290611       -5.4791045427  MEMB      228             0.0000000000
     25752       228  POPC      C311          -30.6789469113       -0.8508907775       -4.3924874092  MEMB      228             0.0000000000
     25753       228  POPC      H11X          -31.0294245171       -1.8902108465       -4.2155689882  MEMB      228             0.0000000000
     25754       228  POPC      H11Y          -31.6252782410       -0.2718150574       -4.4512202026  MEMB      228             0.0000000000
     25755       228  POPC      C312          -30.0901412337       -0.3099370576       -3.0887700849  MEMB      228             0.0000000000
     25756       228  POPC      H12X          -30.8362072251       -0.1339735558       -2.2845653126  MEMB      228             0.0000000000
     25757       228  POPC      H12Y          -29.6634822520        0.6553537747       -3.4358965144  MEMB      228             0.0000000000
     25758       228  POPC      C313          -28.9228532724       -1.0271549125       -2.4520424018  MEMB      228             0.0000000000
     25759       228  POPC      H13X          -28.7360326156       -0.6073826991       -1.4405039241  MEMB      228             0.0000000000
     25760       228  POPC      H13Y          -28.0258607563       -0.7623976488       -3.0517323749  MEMB      228             0.0000000000
     25761       228  POPC      C314          -29.1135075345       -2.4787794962       -2.4820328478  MEMB      228             0.0000000000
     25762       228  POPC      H14X          -28.0969872152       -2.8648798800       -2.2541424006  MEMB      228             0.0000000000
     25763       228  POPC      H14Y          -29.4233234776       -2.9585988701       -3.4349806153  MEMB      228             0.0000000000
     25764       228  POPC      C315          -30.1421000554       -2.9469006162       -1.4279692485  MEMB      228             0.0000000000
     25765       228  POPC      H15X          -31.1664012909       -2.5731853059       -1.6411929287  MEMB      228             0.0000000000
     25766       228  POPC      H15Y          -29.6894307393       -2.4652789019       -0.5349667071  MEMB      228             0.0000000000
     25767       228  POPC      C316          -30.2476350954       -4.4654289596       -1.2821638166  MEMB      228             0.0000000000
     25768       228  POPC      H16X          -30.6036131409       -4.9225791925       -2.2301157930  MEMB      228             0.0000000000
     25769       228  POPC      H16Y          -30.9827055905       -4.7277156281       -0.4914691069  MEMB      228             0.0000000000
     25770       228  POPC      H16Z          -29.2146303822       -4.8496708980       -1.1422336726  MEMB      228             0.0000000000
     25771       229  POPE      N              23.0973401052      -16.3930671337      -18.8295132951  MEMB      229             0.0000000000
     25772       229  POPE      HN1            24.0490364218      -16.7722640917      -19.0086326555  MEMB      229             0.0000000000
     25773       229  POPE      HN2            23.1806856258      -15.3579310091      -18.7734200896  MEMB      229             0.0000000000
     25774       229  POPE      HN3            22.7090448937      -16.7427846945      -17.9303333430  MEMB      229             0.0000000000
     25775       229  POPE      C12            22.3103001614      -16.7116313522      -20.1038334132  MEMB      229             0.0000000000
     25776       229  POPE      H12A           22.6361397275      -17.7095576770      -20.4675538498  MEMB      229             0.0000000000
     25777       229  POPE      H12B           22.4874235375      -15.9238603735      -20.8669619632  MEMB      229             0.0000000000
     25778       229  POPE      C11            20.7813937731      -16.9386446351      -19.7025117572  MEMB      229             0.0000000000
     25779       229  POPE      H11A           20.2416890361      -17.0804790819      -20.6632005342  MEMB      229             0.0000000000
     25780       229  POPE      H11B           20.4484949934      -16.0072986107      -19.1964545298  MEMB      229             0.0000000000
     25781       229  POPE      P              19.3068045681      -18.8348383625      -18.7586647812  MEMB      229             0.0000000000
     25782       229  POPE      O13            19.6237021301      -20.0840045182      -18.0489964157  MEMB      229             0.0000000000
     25783       229  POPE      O14            18.4611853761      -18.9055488172      -20.0000075233  MEMB      229             0.0000000000
     25784       229  POPE      O11            18.4712782886      -17.9371345658      -17.6860959410  MEMB      229             0.0000000000
     25785       229  POPE      O12            20.7041820285      -18.1205666319      -18.8703768712  MEMB      229             0.0000000000
     25786       229  POPE      C1             19.2647538829      -17.4278811737      -16.6504892366  MEMB      229             0.0000000000
     25787       229  POPE      HA             19.3581122060      -16.3222557317      -16.7070368050  MEMB      229             0.0000000000
     25788       229  POPE      HB             20.2577865945      -17.8951808576      -16.4777523094  MEMB      229             0.0000000000
     25789       229  POPE      C2             18.4560632451      -17.7185591809      -15.3234852926  MEMB      229             0.0000000000
     25790       229  POPE      HS             19.1349908845      -17.3482539147      -14.5258311626  MEMB      229             0.0000000000
     25791       229  POPE      O21            18.1918369604      -19.1247423831      -15.2015162705  MEMB      229             0.0000000000
     25792       229  POPE      C21            18.2875887447      -19.7509250276      -14.0087639182  MEMB      229             0.0000000000
     25793       229  POPE      O22            18.5929805784      -19.2099911109      -12.9452271897  MEMB      229             0.0000000000
     25794       229  POPE      C22            18.1533574185      -21.2978445272      -14.1569414705  MEMB      229             0.0000000000
     25795       229  POPE      H2R            18.8239938946      -21.7709896967      -14.9057411362  MEMB      229             0.0000000000
     25796       229  POPE      H2S            17.1101559062      -21.6449632336      -14.3168169989  MEMB      229             0.0000000000
     25797       229  POPE      C3             17.0715143138      -17.0596021404      -15.2997009328  MEMB      229             0.0000000000
     25798       229  POPE      HX             16.4411373356      -17.5634619428      -16.0632920492  MEMB      229             0.0000000000
     25799       229  POPE      HY             17.0374517325      -15.9590385600      -15.4477570307  MEMB      229             0.0000000000
     25800       229  POPE      O31            16.3958416518      -17.2076182002      -14.0060597616  MEMB      229             0.0000000000
     25801       229  POPE      C31            16.7053867636      -16.3060762542      -13.0414764024  MEMB      229             0.0000000000
     25802       229  POPE      O32            17.6383606292      -15.5366754108      -13.0717208175  MEMB      229             0.0000000000
     25803       229  POPE      C32            15.8378583589      -16.6805730664      -11.8324462838  MEMB      229             0.0000000000
     25804       229  POPE      H2X            15.8414488568      -15.9972302090      -10.9564607415  MEMB      229             0.0000000000
     25805       229  POPE      H2Y            16.1966949843      -17.7055462573      -11.5979530543  MEMB      229             0.0000000000
     25806       229  POPE      C23            18.6205438282      -21.9508384328      -12.8081814875  MEMB      229             0.0000000000
     25807       229  POPE      H3R            18.1077242195      -22.9363735601      -12.8005953868  MEMB      229             0.0000000000
     25808       229  POPE      H3S            18.1054694309      -21.3758307765      -12.0091914001  MEMB      229             0.0000000000
     25809       229  POPE      C24            20.1446536290      -22.0973648988      -12.5445472233  MEMB      229             0.0000000000
     25810       229  POPE      H4R            20.5509343037      -21.0842598404      -12.3374839428  MEMB      229             0.0000000000
     25811       229  POPE      H4S            20.6001280949      -22.5628747862      -13.4446385190  MEMB      229             0.0000000000
     25812       229  POPE      C25            20.4865764698      -22.9101339274      -11.3420599401  MEMB      229             0.0000000000
     25813       229  POPE      H5R            21.5549660366      -23.2054649428      -11.4171889964  MEMB      229             0.0000000000
     25814       229  POPE      H5S            19.9091683804      -23.8489565896      -11.4818191488  MEMB      229             0.0000000000
     25815       229  POPE      C26            20.0889422642      -22.2733535748       -9.9965277002  MEMB      229             0.0000000000
     25816       229  POPE      H6R            18.9993558128      -22.0656728170      -10.0597047517  MEMB      229             0.0000000000
     25817       229  POPE      H6S            20.6382754416      -21.3394450611       -9.7508266230  MEMB      229             0.0000000000
     25818       229  POPE      C27            20.4035640699      -23.3491607960       -8.8565350637  MEMB      229             0.0000000000
     25819       229  POPE      H7R            21.5038913795      -23.5008489190       -8.8808622731  MEMB      229             0.0000000000
     25820       229  POPE      H7S            19.8844852420      -24.2943725346       -9.1238412890  MEMB      229             0.0000000000
     25821       229  POPE      C28            20.1085031598      -23.0033970010       -7.3623478209  MEMB      229             0.0000000000
     25822       229  POPE      H8R            20.4736250681      -23.9280847888       -6.8664046066  MEMB      229             0.0000000000
     25823       229  POPE      H8S            19.0103626426      -22.9707643905       -7.1969904688  MEMB      229             0.0000000000
     25824       229  POPE      C29            20.8645805548      -21.8886300014       -6.6976549156  MEMB      229             0.0000000000
     25825       229  POPE      H91            21.7881616868      -22.2932325409       -6.2580014385  MEMB      229             0.0000000000
     25826       229  POPE      C210           20.4398164545      -20.5875395840       -6.5870348537  MEMB      229             0.0000000000
     25827       229  POPE      H101           20.9985879209      -19.8411712202       -6.0033325851  MEMB      229             0.0000000000
     25828       229  POPE      C211           19.0800469517      -20.1876775821       -7.1000798703  MEMB      229             0.0000000000
     25829       229  POPE      H11R           18.3537415021      -21.0208452819       -7.2124750718  MEMB      229             0.0000000000
     25830       229  POPE      H11S           19.0777202271      -19.5641397163       -8.0195993016  MEMB      229             0.0000000000
     25831       229  POPE      C212           18.3289179255      -19.3330289677       -6.0195164592  MEMB      229             0.0000000000
     25832       229  POPE      H12R           18.3987382499      -19.7666628630       -4.9990218064  MEMB      229             0.0000000000
     25833       229  POPE      H12S           17.2441363436      -19.5020525650       -6.1898130534  MEMB      229             0.0000000000
     25834       229  POPE      C213           18.7723510052      -17.8789005242       -5.9052874831  MEMB      229             0.0000000000
     25835       229  POPE      H13R           18.4602878752      -17.2523235071       -6.7680387661  MEMB      229             0.0000000000
     25836       229  POPE      H13S           19.8766814626      -17.7597776935       -5.8810959283  MEMB      229             0.0000000000
     25837       229  POPE      C214           18.2732882694      -17.2412511550       -4.5689189238  MEMB      229             0.0000000000
     25838       229  POPE      H14R           17.1827147264      -17.0710652592       -4.4423990309  MEMB      229             0.0000000000
     25839       229  POPE      H14S           18.6890623771      -16.2109870289       -4.5719171030  MEMB      229             0.0000000000
     25840       229  POPE      C215           18.8001019125      -17.9448913782       -3.2995406311  MEMB      229             0.0000000000
     25841       229  POPE      H15R           19.8902099334      -18.1556083300       -3.3393357362  MEMB      229             0.0000000000
     25842       229  POPE      H15S           18.2542538062      -18.8759238545       -3.0358181874  MEMB      229             0.0000000000
     25843       229  POPE      C216           18.8810924658      -17.0789322259       -2.0982807564  MEMB      229             0.0000000000
     25844       229  POPE      H16R           19.4990767046      -16.2613601492       -2.5272243336  MEMB      229             0.0000000000
     25845       229  POPE      H16S           19.4357926297      -17.5494122069       -1.2584722173  MEMB      229             0.0000000000
     25846       229  POPE      C217           17.7010299661      -16.4202326225       -1.5033846698  MEMB      229             0.0000000000
     25847       229  POPE      H17R           16.9374346844      -16.1237065193       -2.2539284879  MEMB      229             0.0000000000
     25848       229  POPE      H17S           17.9759174563      -15.5106681709       -0.9276674282  MEMB      229             0.0000000000
     25849       229  POPE      C218           16.9832756166      -17.3812752745       -0.5752040861  MEMB      229             0.0000000000
     25850       229  POPE      H18R           16.2445408573      -16.9237908107        0.1171121473  MEMB      229             0.0000000000
     25851       229  POPE      H18S           17.6324619599      -17.9966820536        0.0836991327  MEMB      229             0.0000000000
     25852       229  POPE      H18T           16.4127409544      -18.1307954769       -1.1642966584  MEMB      229             0.0000000000
     25853       229  POPE      C33            14.3608154861      -16.7716923879      -12.1374412767  MEMB      229             0.0000000000
     25854       229  POPE      H3X            14.0924966607      -17.8355263488      -12.3123226663  MEMB      229             0.0000000000
     25855       229  POPE      H3Y            14.1415191056      -16.1949539142      -13.0613474824  MEMB      229             0.0000000000
     25856       229  POPE      C34            13.4442867482      -16.3437426448      -10.9865970122  MEMB      229             0.0000000000
     25857       229  POPE      H4X            12.4814929358      -15.8944205191      -11.3113407274  MEMB      229             0.0000000000
     25858       229  POPE      H4Y            13.9465647416      -15.5535991270      -10.3885070703  MEMB      229             0.0000000000
     25859       229  POPE      C35            12.9591297558      -17.5382653722      -10.1215960028  MEMB      229             0.0000000000
     25860       229  POPE      H5X            12.4223554698      -18.2791893370      -10.7518542616  MEMB      229             0.0000000000
     25861       229  POPE      H5Y            12.4166501324      -17.0570740597       -9.2798761654  MEMB      229             0.0000000000
     25862       229  POPE      C36            14.0577321940      -18.2498505396       -9.2924743364  MEMB      229             0.0000000000
     25863       229  POPE      H6X            14.7149864192      -17.4701641545       -8.8515355135  MEMB      229             0.0000000000
     25864       229  POPE      H6Y            14.5975331590      -18.8194376961      -10.0789256279  MEMB      229             0.0000000000
     25865       229  POPE      C37            13.4850054710      -19.1720594677       -8.2044785188  MEMB      229             0.0000000000
     25866       229  POPE      H7X            12.8421152695      -19.9376608901       -8.6891098876  MEMB      229             0.0000000000
     25867       229  POPE      H7Y            12.9148194512      -18.5641170601       -7.4698932150  MEMB      229             0.0000000000
     25868       229  POPE      C38            14.5451140789      -19.9257268725       -7.3804132634  MEMB      229             0.0000000000
     25869       229  POPE      H8X            15.2677703090      -19.1539508659       -7.0391641942  MEMB      229             0.0000000000
     25870       229  POPE      H8Y            15.1173594515      -20.6449872250       -8.0045288474  MEMB      229             0.0000000000
     25871       229  POPE      C39            13.9259483623      -20.6691107774       -6.2218775361  MEMB      229             0.0000000000
     25872       229  POPE      H9X            12.9468369541      -21.1576673537       -6.4141637792  MEMB      229             0.0000000000
     25873       229  POPE      H9Y            13.6886030385      -19.9360848160       -5.4214641595  MEMB      229             0.0000000000
     25874       229  POPE      C310           14.7931899077      -21.7999038070       -5.7158681469  MEMB      229             0.0000000000
     25875       229  POPE      H10X           15.5590523064      -22.0028832491       -6.4946981811  MEMB      229             0.0000000000
     25876       229  POPE      H10Y           14.3128826290      -22.7835477476       -5.5259458850  MEMB      229             0.0000000000
     25877       229  POPE      C311           15.4908006182      -21.3760213523       -4.3630701495  MEMB      229             0.0000000000
     25878       229  POPE      H11X           14.7722824717      -21.2606530939       -3.5235811196  MEMB      229             0.0000000000
     25879       229  POPE      H11Y           16.0840569243      -20.4605594573       -4.5735404838  MEMB      229             0.0000000000
     25880       229  POPE      C312           16.5176632897      -22.3987782916       -3.9544354475  MEMB      229             0.0000000000
     25881       229  POPE      H12X           17.3713192337      -22.4196850888       -4.6651786763  MEMB      229             0.0000000000
     25882       229  POPE      H12Y           16.1416031698      -23.4425811192       -4.0125335854  MEMB      229             0.0000000000
     25883       229  POPE      C313           17.3191558781      -22.1065233662       -2.5781074884  MEMB      229             0.0000000000
     25884       229  POPE      H13X           16.5397218416      -22.0682390224       -1.7873251099  MEMB      229             0.0000000000
     25885       229  POPE      H13Y           17.8075706169      -21.1127380010       -2.6684591458  MEMB      229             0.0000000000
     25886       229  POPE      C314           18.3435058934      -23.2126898602       -2.1821120628  MEMB      229             0.0000000000
     25887       229  POPE      H14X           19.0045158298      -22.8548741415       -1.3639710969  MEMB      229             0.0000000000
     25888       229  POPE      H14Y           19.0434159714      -23.4203605465       -3.0195610327  MEMB      229             0.0000000000
     25889       229  POPE      C315           17.7434892669      -24.5453282817       -1.7166688357  MEMB      229             0.0000000000
     25890       229  POPE      H15X           18.4876943923      -25.2032006722       -1.2189908732  MEMB      229             0.0000000000
     25891       229  POPE      H15Y           17.3794937516      -25.0147343423       -2.6555440733  MEMB      229             0.0000000000
     25892       229  POPE      C316           16.6053592184      -24.3943260060       -0.6645519440  MEMB      229             0.0000000000
     25893       229  POPE      H16X           17.0512327966      -23.7620836888        0.1328105784  MEMB      229             0.0000000000
     25894       229  POPE      H16Y           16.2763430371      -25.3779282771       -0.2663134942  MEMB      229             0.0000000000
     25895       229  POPE      H16Z           15.7320970083      -23.8300778639       -1.0561620106  MEMB      229             0.0000000000
     25896       230  POPE      N              11.4969167199       33.5442290134      -21.7097901318  MEMB      230             0.0000000000
     25897       230  POPE      HN1            11.2730762445       34.1562133178      -20.8992527717  MEMB      230             0.0000000000
     25898       230  POPE      HN2            12.2569043222       33.9451128973      -22.2957174821  MEMB      230             0.0000000000
     25899       230  POPE      HN3            10.6472640820       33.3240415552      -22.2676501744  MEMB      230             0.0000000000
     25900       230  POPE      C12            11.8663910666       32.1552805701      -21.2165175996  MEMB      230             0.0000000000
     25901       230  POPE      H12A           12.8777681862       32.1819803341      -20.7574701759  MEMB      230             0.0000000000
     25902       230  POPE      H12B           11.8906492647       31.4909893121      -22.1067138117  MEMB      230             0.0000000000
     25903       230  POPE      C11            10.8608943060       31.6415972761      -20.1986242978  MEMB      230             0.0000000000
     25904       230  POPE      H11A           11.1449641429       30.6522162786      -19.7805924567  MEMB      230             0.0000000000
     25905       230  POPE      H11B            9.9188930239       31.5083093971      -20.7723743182  MEMB      230             0.0000000000
     25906       230  POPE      P              11.2880395638       32.3762438574      -17.7468305936  MEMB      230             0.0000000000
     25907       230  POPE      O13            12.7799856832       32.6073254941      -17.9766936795  MEMB      230             0.0000000000
     25908       230  POPE      O14            11.0150493376       31.0763697734      -17.1708141997  MEMB      230             0.0000000000
     25909       230  POPE      O11            10.5975729412       33.5078064315      -16.8622708360  MEMB      230             0.0000000000
     25910       230  POPE      O12            10.5196431791       32.5043435808      -19.1184586592  MEMB      230             0.0000000000
     25911       230  POPE      C1             10.2479305763       34.7151038385      -17.4754179496  MEMB      230             0.0000000000
     25912       230  POPE      HA              9.3762171482       34.5901707226      -18.1527867451  MEMB      230             0.0000000000
     25913       230  POPE      HB             11.0634753667       35.0555816032      -18.1486806426  MEMB      230             0.0000000000
     25914       230  POPE      C2             10.0392739033       35.6638894141      -16.2661934223  MEMB      230             0.0000000000
     25915       230  POPE      HS              9.8753810876       36.7012739733      -16.6285381783  MEMB      230             0.0000000000
     25916       230  POPE      O21            11.1997425091       35.8126115296      -15.4516820444  MEMB      230             0.0000000000
     25917       230  POPE      C21            12.2895098983       36.3026704840      -15.9583885234  MEMB      230             0.0000000000
     25918       230  POPE      O22            12.4635494507       36.5838608279      -17.1393133851  MEMB      230             0.0000000000
     25919       230  POPE      C22            13.4226909472       36.5220154882      -14.9363013994  MEMB      230             0.0000000000
     25920       230  POPE      H2R            13.1650677148       37.4474457503      -14.3781523111  MEMB      230             0.0000000000
     25921       230  POPE      H2S            14.3389730028       36.8679089418      -15.4608069310  MEMB      230             0.0000000000
     25922       230  POPE      C3              8.8629271098       35.3510221268      -15.2209020975  MEMB      230             0.0000000000
     25923       230  POPE      HX              7.9580787900       35.0518805968      -15.7919404703  MEMB      230             0.0000000000
     25924       230  POPE      HY              8.7115078101       36.3150281222      -14.6897847164  MEMB      230             0.0000000000
     25925       230  POPE      O31             9.2795482783       34.2426011533      -14.4416100644  MEMB      230             0.0000000000
     25926       230  POPE      C31             9.8754691582       34.5402214834      -13.3090529772  MEMB      230             0.0000000000
     25927       230  POPE      O32            10.0848267487       35.6522261831      -12.8617849616  MEMB      230             0.0000000000
     25928       230  POPE      C32            10.1875876631       33.2777913393      -12.5558800886  MEMB      230             0.0000000000
     25929       230  POPE      H2X            10.8955381528       32.6826046280      -13.1714121731  MEMB      230             0.0000000000
     25930       230  POPE      H2Y             9.3175841686       32.6255425022      -12.3278753715  MEMB      230             0.0000000000
     25931       230  POPE      C23            13.7642285608       35.2056566330      -14.0397237640  MEMB      230             0.0000000000
     25932       230  POPE      H3R            12.9267768480       35.0307940079      -13.3309089290  MEMB      230             0.0000000000
     25933       230  POPE      H3S            14.6648195850       35.4499645726      -13.4367554134  MEMB      230             0.0000000000
     25934       230  POPE      C24            13.9948050223       33.9135437044      -14.8034829519  MEMB      230             0.0000000000
     25935       230  POPE      H4R            14.9869310430       33.9531943403      -15.3019152118  MEMB      230             0.0000000000
     25936       230  POPE      H4S            13.1275562809       33.8649723157      -15.4961888320  MEMB      230             0.0000000000
     25937       230  POPE      C25            13.9121358869       32.6693202584      -13.9004960130  MEMB      230             0.0000000000
     25938       230  POPE      H5R            13.0168858978       32.9269291521      -13.2951151910  MEMB      230             0.0000000000
     25939       230  POPE      H5S            14.7643133252       32.6251998986      -13.1890412010  MEMB      230             0.0000000000
     25940       230  POPE      C26            13.6721746535       31.3549500298      -14.6455251282  MEMB      230             0.0000000000
     25941       230  POPE      H6R            14.4984930683       31.1429071400      -15.3572531732  MEMB      230             0.0000000000
     25942       230  POPE      H6S            12.8630553309       31.7182387938      -15.3146052582  MEMB      230             0.0000000000
     25943       230  POPE      C27            13.2370671253       30.1539597465      -13.8157724143  MEMB      230             0.0000000000
     25944       230  POPE      H7R            13.1005265204       29.3021676493      -14.5158639992  MEMB      230             0.0000000000
     25945       230  POPE      H7S            12.1769876277       30.3925046350      -13.5841505064  MEMB      230             0.0000000000
     25946       230  POPE      C28            13.9599308674       29.9099204112      -12.4615620088  MEMB      230             0.0000000000
     25947       230  POPE      H8R            13.7047709822       30.7582653276      -11.7910952132  MEMB      230             0.0000000000
     25948       230  POPE      H8S            15.0394381340       29.8412375859      -12.7150715914  MEMB      230             0.0000000000
     25949       230  POPE      C29            13.4723452224       28.5573076529      -11.9415890335  MEMB      230             0.0000000000
     25950       230  POPE      H91            14.0360132256       27.6489507400      -12.2007528956  MEMB      230             0.0000000000
     25951       230  POPE      C210           12.6030142966       28.2620242472      -10.9371468024  MEMB      230             0.0000000000
     25952       230  POPE      H101           12.4987016569       27.1851773125      -10.7383515692  MEMB      230             0.0000000000
     25953       230  POPE      C211           11.9742679145       29.3234628201      -10.0611875516  MEMB      230             0.0000000000
     25954       230  POPE      H11R           11.0363732072       29.6137027874      -10.5812216704  MEMB      230             0.0000000000
     25955       230  POPE      H11S           12.6246590677       30.2194847990       -9.9692252846  MEMB      230             0.0000000000
     25956       230  POPE      C212           11.6068904067       28.7916646423       -8.6800785191  MEMB      230             0.0000000000
     25957       230  POPE      H12R           12.5920042996       28.7190710999       -8.1715492911  MEMB      230             0.0000000000
     25958       230  POPE      H12S           11.1643597234       27.7726990739       -8.6660432701  MEMB      230             0.0000000000
     25959       230  POPE      C213           10.8044798121       29.7906877836       -7.8640765490  MEMB      230             0.0000000000
     25960       230  POPE      H13R            9.8626921024       30.1448789956       -8.3351451819  MEMB      230             0.0000000000
     25961       230  POPE      H13S           11.3766195032       30.7425931868       -7.8348652144  MEMB      230             0.0000000000
     25962       230  POPE      C214           10.7070495650       29.4714200387       -6.3739053146  MEMB      230             0.0000000000
     25963       230  POPE      H14R           11.6559498450       29.7357309931       -5.8600483566  MEMB      230             0.0000000000
     25964       230  POPE      H14S           10.6285983820       28.3642361989       -6.3258397239  MEMB      230             0.0000000000
     25965       230  POPE      C215            9.6652750794       30.1806637551       -5.4999784544  MEMB      230             0.0000000000
     25966       230  POPE      H15R            8.6872548603       30.2824733130       -6.0171172189  MEMB      230             0.0000000000
     25967       230  POPE      H15S           10.0875509347       31.1810737681       -5.2650660061  MEMB      230             0.0000000000
     25968       230  POPE      C216            9.2722528263       29.4499847636       -4.2540192157  MEMB      230             0.0000000000
     25969       230  POPE      H16R           10.0300218267       29.5147807205       -3.4441375381  MEMB      230             0.0000000000
     25970       230  POPE      H16S            9.2963027518       28.3703080404       -4.5148647351  MEMB      230             0.0000000000
     25971       230  POPE      C217            7.8360683948       29.7993099233       -3.7447261932  MEMB      230             0.0000000000
     25972       230  POPE      H17R            7.0850547387       29.5726018574       -4.5314301177  MEMB      230             0.0000000000
     25973       230  POPE      H17S            7.6977530770       30.8927701316       -3.6049604287  MEMB      230             0.0000000000
     25974       230  POPE      C218            7.4420479744       29.0218619130       -2.4891158089  MEMB      230             0.0000000000
     25975       230  POPE      H18R            6.4829974238       29.4171133247       -2.0912222482  MEMB      230             0.0000000000
     25976       230  POPE      H18S            8.1905952671       29.2766899662       -1.7086925271  MEMB      230             0.0000000000
     25977       230  POPE      H18T            7.4068472342       27.9247645731       -2.6607527743  MEMB      230             0.0000000000
     25978       230  POPE      C33            10.7166895281       33.5699575471      -11.1104672105  MEMB      230             0.0000000000
     25979       230  POPE      H3X            11.4668717559       34.3894360263      -11.1120953813  MEMB      230             0.0000000000
     25980       230  POPE      H3Y            11.1436435518       32.5910167940      -10.8043525934  MEMB      230             0.0000000000
     25981       230  POPE      C34             9.6564495847       34.0136333688      -10.0354969796  MEMB      230             0.0000000000
     25982       230  POPE      H4X             9.0738879418       34.9120913983      -10.3316664451  MEMB      230             0.0000000000
     25983       230  POPE      H4Y            10.2524691055       34.4221773262       -9.1915934733  MEMB      230             0.0000000000
     25984       230  POPE      C35             8.7467021097       32.9684575925       -9.4360690780  MEMB      230             0.0000000000
     25985       230  POPE      H5X             8.5095193976       33.2843425428       -8.3976654796  MEMB      230             0.0000000000
     25986       230  POPE      H5Y             9.4004535952       32.0835050408       -9.2818325113  MEMB      230             0.0000000000
     25987       230  POPE      C36             7.3487002419       32.6675197389      -10.0717522382  MEMB      230             0.0000000000
     25988       230  POPE      H6X             7.4232919208       32.3999794845      -11.1474749698  MEMB      230             0.0000000000
     25989       230  POPE      H6Y             6.8234877983       33.6431601273       -9.9905197773  MEMB      230             0.0000000000
     25990       230  POPE      C37             6.5302122388       31.5963231464       -9.2946174412  MEMB      230             0.0000000000
     25991       230  POPE      H7X             7.0584352118       30.9348555547       -8.5750608027  MEMB      230             0.0000000000
     25992       230  POPE      H7Y             5.9639755627       31.0289927495      -10.0639242971  MEMB      230             0.0000000000
     25993       230  POPE      C38             5.3353094426       32.1349938480       -8.4017767630  MEMB      230             0.0000000000
     25994       230  POPE      H8X             4.8461000676       31.2966955647       -7.8611743808  MEMB      230             0.0000000000
     25995       230  POPE      H8Y             4.5264602673       32.4445487266       -9.0976648151  MEMB      230             0.0000000000
     25996       230  POPE      C39             5.6314152263       33.1649912562       -7.2752794457  MEMB      230             0.0000000000
     25997       230  POPE      H9X             4.6636857513       33.3908731074       -6.7784925185  MEMB      230             0.0000000000
     25998       230  POPE      H9Y             5.9590773819       34.0857776393       -7.8035892658  MEMB      230             0.0000000000
     25999       230  POPE      C310            6.7230759960       32.7392490794       -6.2390270454  MEMB      230             0.0000000000
     26000       230  POPE      H10X            7.3569784618       31.9258020793       -6.6522987510  MEMB      230             0.0000000000
     26001       230  POPE      H10Y            6.2507357396       32.2211166144       -5.3771960620  MEMB      230             0.0000000000
     26002       230  POPE      C311            7.4363308370       34.0043097692       -5.7362981163  MEMB      230             0.0000000000
     26003       230  POPE      H11X            6.6516174784       34.6931222378       -5.3567136321  MEMB      230             0.0000000000
     26004       230  POPE      H11Y            8.0558264608       34.4496674343       -6.5438886551  MEMB      230             0.0000000000
     26005       230  POPE      C312            8.3151804195       33.7755852021       -4.5109577442  MEMB      230             0.0000000000
     26006       230  POPE      H12X            8.8592031268       32.8348159444       -4.7418551032  MEMB      230             0.0000000000
     26007       230  POPE      H12Y            7.6676029838       33.6718742460       -3.6141814787  MEMB      230             0.0000000000
     26008       230  POPE      C313            9.1799972618       34.9325126175       -4.1918766171  MEMB      230             0.0000000000
     26009       230  POPE      H13X            8.4560152242       35.7750885961       -4.1764951401  MEMB      230             0.0000000000
     26010       230  POPE      H13Y            9.9460571342       35.0938474203       -4.9801935601  MEMB      230             0.0000000000
     26011       230  POPE      C314            9.8563541229       34.8460402171       -2.7647931471  MEMB      230             0.0000000000
     26012       230  POPE      H14X           10.6092060558       35.6462714313       -2.5999741678  MEMB      230             0.0000000000
     26013       230  POPE      H14Y           10.4214806519       33.8950191750       -2.6622654697  MEMB      230             0.0000000000
     26014       230  POPE      C315            8.9842618918       34.9867292850       -1.5451919313  MEMB      230             0.0000000000
     26015       230  POPE      H15X            9.6797970512       34.9459769462       -0.6798069605  MEMB      230             0.0000000000
     26016       230  POPE      H15Y            8.3477410251       34.0780368692       -1.4865406492  MEMB      230             0.0000000000
     26017       230  POPE      C316            8.1013396915       36.2268963030       -1.4540149940  MEMB      230             0.0000000000
     26018       230  POPE      H16X            7.0957794642       36.0246794479       -1.8809553305  MEMB      230             0.0000000000
     26019       230  POPE      H16Y            8.5548175322       37.1630850790       -1.8441803327  MEMB      230             0.0000000000
     26020       230  POPE      H16Z            7.8966671299       36.3551022681       -0.3695814438  MEMB      230             0.0000000000
     26021       231  POPE      N             -24.7150318992       12.7021283424      -21.9693667579  MEMB      231             0.0000000000
     26022       231  POPE      HN1           -23.9659556044       11.9864691357      -21.8781712554  MEMB      231             0.0000000000
     26023       231  POPE      HN2           -25.6023672421       12.3269982445      -21.5775589974  MEMB      231             0.0000000000
     26024       231  POPE      HN3           -24.9008036559       12.8329426273      -22.9842441389  MEMB      231             0.0000000000
     26025       231  POPE      C12           -24.4351775263       14.0389179499      -21.2499106381  MEMB      231             0.0000000000
     26026       231  POPE      H12A          -25.2609101491       14.6948614094      -21.5995174600  MEMB      231             0.0000000000
     26027       231  POPE      H12B          -23.4591042505       14.4105317308      -21.6287313164  MEMB      231             0.0000000000
     26028       231  POPE      C11           -24.4579338289       13.9670974886      -19.6968619477  MEMB      231             0.0000000000
     26029       231  POPE      H11A          -24.3023881845       15.0385433719      -19.4476022032  MEMB      231             0.0000000000
     26030       231  POPE      H11B          -23.6078539801       13.3122613579      -19.4089819517  MEMB      231             0.0000000000
     26031       231  POPE      P             -25.8690865284       12.9178387731      -17.8165754268  MEMB      231             0.0000000000
     26032       231  POPE      O13           -24.5611513617       12.3040409470      -17.3716365428  MEMB      231             0.0000000000
     26033       231  POPE      O14           -27.0417158283       12.0443289083      -17.7380891052  MEMB      231             0.0000000000
     26034       231  POPE      O11           -26.1063691875       14.2316878714      -16.9274550318  MEMB      231             0.0000000000
     26035       231  POPE      O12           -25.6884850359       13.4515269183      -19.2301045499  MEMB      231             0.0000000000
     26036       231  POPE      C1            -27.1684160356       15.1010667108      -17.3310687165  MEMB      231             0.0000000000
     26037       231  POPE      HA            -28.1387919319       14.5603100845      -17.3145169507  MEMB      231             0.0000000000
     26038       231  POPE      HB            -27.1295466731       15.4862102366      -18.3724498765  MEMB      231             0.0000000000
     26039       231  POPE      C2            -27.2350847322       16.3607911827      -16.4497533463  MEMB      231             0.0000000000
     26040       231  POPE      HS            -27.6738025799       17.0849351770      -17.1691023452  MEMB      231             0.0000000000
     26041       231  POPE      O21           -25.9013856986       16.7435183570      -16.0277123103  MEMB      231             0.0000000000
     26042       231  POPE      C21           -25.0946699573       17.3561029982      -16.8295748583  MEMB      231             0.0000000000
     26043       231  POPE      O22           -25.3410910508       17.5096429346      -18.0160911417  MEMB      231             0.0000000000
     26044       231  POPE      C22           -23.6925873972       17.7351807868      -16.1704217536  MEMB      231             0.0000000000
     26045       231  POPE      H2R           -23.7708591145       18.7691765602      -15.7716146928  MEMB      231             0.0000000000
     26046       231  POPE      H2S           -22.7948077810       17.7268305341      -16.8248246586  MEMB      231             0.0000000000
     26047       231  POPE      C3            -28.1112466936       16.3221095922      -15.2073597834  MEMB      231             0.0000000000
     26048       231  POPE      HX            -29.1760651113       16.1326346736      -15.4614894357  MEMB      231             0.0000000000
     26049       231  POPE      HY            -27.9403077325       17.2536728429      -14.6265919374  MEMB      231             0.0000000000
     26050       231  POPE      O31           -27.7164345384       15.2009009695      -14.3925483184  MEMB      231             0.0000000000
     26051       231  POPE      C31           -28.4717194771       15.1209053679      -13.2210920519  MEMB      231             0.0000000000
     26052       231  POPE      O32           -29.0532634864       16.0301154951      -12.7199920615  MEMB      231             0.0000000000
     26053       231  POPE      C32           -28.3158735651       13.7168828086      -12.6175650044  MEMB      231             0.0000000000
     26054       231  POPE      H2X           -27.2689173625       13.3741492074      -12.7615692949  MEMB      231             0.0000000000
     26055       231  POPE      H2Y           -28.9965560893       12.9800411373      -13.0951177566  MEMB      231             0.0000000000
     26056       231  POPE      C23           -23.4378736216       16.8147661200      -14.8685389951  MEMB      231             0.0000000000
     26057       231  POPE      H3R           -24.3485207555       16.6354962106      -14.2578795466  MEMB      231             0.0000000000
     26058       231  POPE      H3S           -22.6477847605       17.3068663282      -14.2619767178  MEMB      231             0.0000000000
     26059       231  POPE      C24           -22.8639713644       15.4212177305      -15.1898427988  MEMB      231             0.0000000000
     26060       231  POPE      H4R           -21.7595112728       15.5216090145      -15.2562557841  MEMB      231             0.0000000000
     26061       231  POPE      H4S           -23.2799733835       15.1411523752      -16.1812188472  MEMB      231             0.0000000000
     26062       231  POPE      C25           -23.2809496994       14.3388777057      -14.1879631320  MEMB      231             0.0000000000
     26063       231  POPE      H5R           -22.8272806413       13.3665799663      -14.4763071721  MEMB      231             0.0000000000
     26064       231  POPE      H5S           -24.3841854677       14.4687697046      -14.1700776946  MEMB      231             0.0000000000
     26065       231  POPE      C26           -22.7162036824       14.5292549289      -12.7927501804  MEMB      231             0.0000000000
     26066       231  POPE      H6R           -23.0435893772       15.5084782697      -12.3825535745  MEMB      231             0.0000000000
     26067       231  POPE      H6S           -21.6695688299       14.7672578253      -13.0795103023  MEMB      231             0.0000000000
     26068       231  POPE      C27           -22.7077056870       13.3692774348      -11.8235140406  MEMB      231             0.0000000000
     26069       231  POPE      H7R           -22.1219025769       13.5041788205      -10.8891921955  MEMB      231             0.0000000000
     26070       231  POPE      H7S           -22.2778154779       12.4930546558      -12.3543140793  MEMB      231             0.0000000000
     26071       231  POPE      C28           -24.1577196932       12.8864287751      -11.4909587717  MEMB      231             0.0000000000
     26072       231  POPE      H8R           -24.5929083955       12.7418451649      -12.5029012278  MEMB      231             0.0000000000
     26073       231  POPE      H8S           -24.6637499269       13.6913353290      -10.9161717750  MEMB      231             0.0000000000
     26074       231  POPE      C29           -24.2861397999       11.5357451710      -10.8020614073  MEMB      231             0.0000000000
     26075       231  POPE      H91           -24.5842347284       10.6060466748      -11.3088159378  MEMB      231             0.0000000000
     26076       231  POPE      C210          -24.2811288976       11.3706526336       -9.4650612999  MEMB      231             0.0000000000
     26077       231  POPE      H101          -24.5216953257       10.4139371417       -8.9784155969  MEMB      231             0.0000000000
     26078       231  POPE      C211          -24.1117623571       12.5176586976       -8.4622313113  MEMB      231             0.0000000000
     26079       231  POPE      H11R          -25.1016591754       12.7166721279       -7.9987464203  MEMB      231             0.0000000000
     26080       231  POPE      H11S          -23.9089544804       13.4867015613       -8.9663601488  MEMB      231             0.0000000000
     26081       231  POPE      C212          -23.1558686814       12.2999403870       -7.2707707176  MEMB      231             0.0000000000
     26082       231  POPE      H12R          -22.9640395967       13.1597481805       -6.5938265303  MEMB      231             0.0000000000
     26083       231  POPE      H12S          -22.1470075485       12.0031436051       -7.6291445175  MEMB      231             0.0000000000
     26084       231  POPE      C213          -23.4878817356       11.2293980356       -6.2784270268  MEMB      231             0.0000000000
     26085       231  POPE      H13R          -22.6632657594       11.1064889116       -5.5441088997  MEMB      231             0.0000000000
     26086       231  POPE      H13S          -23.6334170522       10.2319461332       -6.7455781042  MEMB      231             0.0000000000
     26087       231  POPE      C214          -24.7590169711       11.4140486094       -5.4368655138  MEMB      231             0.0000000000
     26088       231  POPE      H14R          -24.8759362062       10.5238239451       -4.7825337444  MEMB      231             0.0000000000
     26089       231  POPE      H14S          -25.5972612815       11.4164278747       -6.1660168460  MEMB      231             0.0000000000
     26090       231  POPE      C215          -24.8548270341       12.6552537945       -4.5766656558  MEMB      231             0.0000000000
     26091       231  POPE      H15R          -24.5926248368       13.5272955987       -5.2131518733  MEMB      231             0.0000000000
     26092       231  POPE      H15S          -24.1936757531       12.6078893738       -3.6850627595  MEMB      231             0.0000000000
     26093       231  POPE      C216          -26.3164390451       12.7893867399       -4.1048647556  MEMB      231             0.0000000000
     26094       231  POPE      H16R          -26.5162202580       12.1954078207       -3.1874791304  MEMB      231             0.0000000000
     26095       231  POPE      H16S          -27.0235428413       12.5447185032       -4.9261223114  MEMB      231             0.0000000000
     26096       231  POPE      C217          -26.8137494399       14.0914615943       -3.5681319746  MEMB      231             0.0000000000
     26097       231  POPE      H17R          -27.8992635284       14.1204381312       -3.3333114840  MEMB      231             0.0000000000
     26098       231  POPE      H17S          -26.6235278154       14.8460411708       -4.3610674734  MEMB      231             0.0000000000
     26099       231  POPE      C218          -26.0742089199       14.6130750857       -2.3317423702  MEMB      231             0.0000000000
     26100       231  POPE      H18R          -25.0670415061       14.9981431486       -2.5994328676  MEMB      231             0.0000000000
     26101       231  POPE      H18S          -25.8397832744       13.9323133932       -1.4856173419  MEMB      231             0.0000000000
     26102       231  POPE      H18T          -26.6440668894       15.4012345019       -1.7947257661  MEMB      231             0.0000000000
     26103       231  POPE      C33           -28.7327532219       13.6572224067      -11.1108839625  MEMB      231             0.0000000000
     26104       231  POPE      H3X           -29.6201466101       14.3256776195      -11.1062489480  MEMB      231             0.0000000000
     26105       231  POPE      H3Y           -27.9637635325       14.1029190617      -10.4443024750  MEMB      231             0.0000000000
     26106       231  POPE      C34           -29.2938560362       12.2828248506      -10.6285605478  MEMB      231             0.0000000000
     26107       231  POPE      H4X           -29.5319305236       11.5422724621      -11.4217964871  MEMB      231             0.0000000000
     26108       231  POPE      H4Y           -30.2218976826       12.3308233747      -10.0196632338  MEMB      231             0.0000000000
     26109       231  POPE      C35           -28.2196933031       11.4831182497       -9.8668275859  MEMB      231             0.0000000000
     26110       231  POPE      H5X           -28.3127590270       11.8439383450       -8.8201817824  MEMB      231             0.0000000000
     26111       231  POPE      H5Y           -27.2075102232       11.7903933663      -10.2065174661  MEMB      231             0.0000000000
     26112       231  POPE      C36           -28.3517254980        9.9557604805       -9.9745412180  MEMB      231             0.0000000000
     26113       231  POPE      H6X           -28.0800377675        9.6825716988      -11.0165946145  MEMB      231             0.0000000000
     26114       231  POPE      H6Y           -29.3774471874        9.6249110352       -9.7048103628  MEMB      231             0.0000000000
     26115       231  POPE      C37           -27.4593832742        9.0792209211       -9.0195647759  MEMB      231             0.0000000000
     26116       231  POPE      H7X           -26.3972738170        9.2401971613       -9.3029933137  MEMB      231             0.0000000000
     26117       231  POPE      H7Y           -27.7205524719        8.0227986573       -9.2433592762  MEMB      231             0.0000000000
     26118       231  POPE      C38           -27.5289098477        9.2647615802       -7.4527596537  MEMB      231             0.0000000000
     26119       231  POPE      H8X           -27.1775812765       10.2708572791       -7.1386571216  MEMB      231             0.0000000000
     26120       231  POPE      H8Y           -26.8992823683        8.5328176236       -6.9030794372  MEMB      231             0.0000000000
     26121       231  POPE      C39           -28.9742530256        9.2107441617       -6.8858224571  MEMB      231             0.0000000000
     26122       231  POPE      H9X           -29.3474427703        8.2381127144       -7.2718769378  MEMB      231             0.0000000000
     26123       231  POPE      H9Y           -29.6518022401       10.0819241271       -7.0134681199  MEMB      231             0.0000000000
     26124       231  POPE      C310          -29.0182474362        9.1868955409       -5.3196026124  MEMB      231             0.0000000000
     26125       231  POPE      H10X          -28.3560699514        8.4229276294       -4.8589568668  MEMB      231             0.0000000000
     26126       231  POPE      H10Y          -30.0318453239        8.9094574922       -4.9590920297  MEMB      231             0.0000000000
     26127       231  POPE      C311          -28.6426897123       10.5020090073       -4.6279812294  MEMB      231             0.0000000000
     26128       231  POPE      H11X          -28.9547270052       11.3636767224       -5.2560597005  MEMB      231             0.0000000000
     26129       231  POPE      H11Y          -27.5342478120       10.5509407460       -4.5706816976  MEMB      231             0.0000000000
     26130       231  POPE      C312          -29.3019077770       10.8270964045       -3.2992249298  MEMB      231             0.0000000000
     26131       231  POPE      H12X          -30.2685047495       11.1940815002       -3.7058364714  MEMB      231             0.0000000000
     26132       231  POPE      H12Y          -28.7633887403       11.6228783077       -2.7415074413  MEMB      231             0.0000000000
     26133       231  POPE      C313          -29.5921849946        9.7090904529       -2.2269191382  MEMB      231             0.0000000000
     26134       231  POPE      H13X          -29.9985426305        8.8147690769       -2.7459410560  MEMB      231             0.0000000000
     26135       231  POPE      H13Y          -30.2753894263       10.0332039604       -1.4129771302  MEMB      231             0.0000000000
     26136       231  POPE      C314          -28.2615955583        9.1629408736       -1.6221746893  MEMB      231             0.0000000000
     26137       231  POPE      H14X          -27.5245761506        8.9376731825       -2.4224099705  MEMB      231             0.0000000000
     26138       231  POPE      H14Y          -28.4819529054        8.1900163649       -1.1331126126  MEMB      231             0.0000000000
     26139       231  POPE      C315          -27.4808121490       10.0997396405       -0.7005316958  MEMB      231             0.0000000000
     26140       231  POPE      H15X          -27.2540718440       10.9904301620       -1.3246957130  MEMB      231             0.0000000000
     26141       231  POPE      H15Y          -26.5952316678        9.6398967681       -0.2120515279  MEMB      231             0.0000000000
     26142       231  POPE      C316          -28.1995882959       10.7551602333        0.4634682991  MEMB      231             0.0000000000
     26143       231  POPE      H16X          -29.2413477982       11.0633957031        0.2309836905  MEMB      231             0.0000000000
     26144       231  POPE      H16Y          -27.6590387103       11.6873081833        0.7340739813  MEMB      231             0.0000000000
     26145       231  POPE      H16Z          -28.3186828509       10.1499782993        1.3875309559  MEMB      231             0.0000000000
     26146       232  POPC      N              32.8256706414        8.9442455335      -19.1483891212  MEMB      232             0.0000000000
     26147       232  POPC      C12            31.9002091730        9.4776872667      -20.1687980129  MEMB      232             0.0000000000
     26148       232  POPC      H12A           32.1557137993        8.9729041442      -21.0887497535  MEMB      232             0.0000000000
     26149       232  POPC      H12B           32.1522078501       10.5128459046      -20.3458382423  MEMB      232             0.0000000000
     26150       232  POPC      C13            32.7986159143        7.4413174825      -19.2164353578  MEMB      232             0.0000000000
     26151       232  POPC      H13A           32.8863855510        7.0813921313      -20.2309056794  MEMB      232             0.0000000000
     26152       232  POPC      H13B           33.6429995948        7.1231954338      -18.6229588661  MEMB      232             0.0000000000
     26153       232  POPC      H13C           31.8843971304        7.0891955308      -18.7618872417  MEMB      232             0.0000000000
     26154       232  POPC      C14            34.2112455604        9.4615743147      -19.5373117748  MEMB      232             0.0000000000
     26155       232  POPC      H14A           34.3719290699        9.5255208036      -20.6033753986  MEMB      232             0.0000000000
     26156       232  POPC      H14B           34.3587975315       10.4524802108      -19.1339086516  MEMB      232             0.0000000000
     26157       232  POPC      H14C           34.9367913634        8.7781496045      -19.1214826066  MEMB      232             0.0000000000
     26158       232  POPC      C15            32.5685783215        9.3813357775      -17.7104103713  MEMB      232             0.0000000000
     26159       232  POPC      H15A           32.3534218427       10.4067190830      -17.4483098236  MEMB      232             0.0000000000
     26160       232  POPC      H15B           33.4373702152        9.1092981857      -17.1293801222  MEMB      232             0.0000000000
     26161       232  POPC      H15C           31.7293752064        8.7642399731      -17.4252246291  MEMB      232             0.0000000000
     26162       232  POPC      C11            30.4141844203        9.3083456699      -19.8731061978  MEMB      232             0.0000000000
     26163       232  POPC      H11A           30.3088754218        8.2093534557      -19.7488196490  MEMB      232             0.0000000000
     26164       232  POPC      H11B           29.7277997121        9.5234972711      -20.7198097417  MEMB      232             0.0000000000
     26165       232  POPC      P              29.6573555826       11.4458216713      -18.7051498178  MEMB      232             0.0000000000
     26166       232  POPC      O13            28.3175648291       11.8792552479      -18.2929713434  MEMB      232             0.0000000000
     26167       232  POPC      O14            30.0847939492       11.9697951214      -20.0397974129  MEMB      232             0.0000000000
     26168       232  POPC      O12            29.9564824159        9.9087839355      -18.6931394024  MEMB      232             0.0000000000
     26169       232  POPC      O11            30.7437894946       12.0276077799      -17.6144911825  MEMB      232             0.0000000000
     26170       232  POPC      C1             30.5855401327       12.9691756228      -16.5610974226  MEMB      232             0.0000000000
     26171       232  POPC      HA             30.1333490299       12.4681045813      -15.6786169252  MEMB      232             0.0000000000
     26172       232  POPC      HB             29.8205104892       13.7259189688      -16.8374855426  MEMB      232             0.0000000000
     26173       232  POPC      C2             31.9507164906       13.5433858568      -16.1207693038  MEMB      232             0.0000000000
     26174       232  POPC      HS             32.3530860292       14.2038826094      -16.9183678844  MEMB      232             0.0000000000
     26175       232  POPC      O21            32.9601965498       12.5413160383      -15.9036702838  MEMB      232             0.0000000000
     26176       232  POPC      C21            34.1181841367       12.9547047609      -15.4658792304  MEMB      232             0.0000000000
     26177       232  POPC      O22            34.4541128433       14.1394502035      -15.4334435440  MEMB      232             0.0000000000
     26178       232  POPC      C22            34.9543179706       11.7564295075      -14.9926869390  MEMB      232             0.0000000000
     26179       232  POPC      H2R            36.0315417504       11.8447317561      -15.2498103192  MEMB      232             0.0000000000
     26180       232  POPC      H2S            34.5719990916       10.8479562437      -15.5053563252  MEMB      232             0.0000000000
     26181       232  POPC      C3             31.8043908536       14.3878639735      -14.8590769795  MEMB      232             0.0000000000
     26182       232  POPC      HX             30.9254787944       15.0564065486      -14.9810829693  MEMB      232             0.0000000000
     26183       232  POPC      HY             32.6233090356       15.0910841166      -14.5960641758  MEMB      232             0.0000000000
     26184       232  POPC      O31            31.4720434743       13.5224486931      -13.7556841783  MEMB      232             0.0000000000
     26185       232  POPC      C31            31.3297906452       14.1427756179      -12.6372859973  MEMB      232             0.0000000000
     26186       232  POPC      O32            31.3840436641       15.3379268389      -12.4377604198  MEMB      232             0.0000000000
     26187       232  POPC      C32            30.9042187269       13.0639639141      -11.4866539741  MEMB      232             0.0000000000
     26188       232  POPC      H2X            30.8597352762       12.0148742044      -11.8496321301  MEMB      232             0.0000000000
     26189       232  POPC      H2Y            29.8430897617       13.3820745897      -11.4022055676  MEMB      232             0.0000000000
     26190       232  POPC      C23            34.8576977968       11.7126701627      -13.4355677001  MEMB      232             0.0000000000
     26191       232  POPC      H3R            34.8568925563       12.7287371800      -12.9862035906  MEMB      232             0.0000000000
     26192       232  POPC      H3S            35.7461058613       11.1892621119      -13.0219298246  MEMB      232             0.0000000000
     26193       232  POPC      C24            33.6664890447       10.8318801058      -12.9925380924  MEMB      232             0.0000000000
     26194       232  POPC      H4R            32.7654452887       11.4534945892      -13.1823712211  MEMB      232             0.0000000000
     26195       232  POPC      H4S            33.7709302594       10.7598191371      -11.8888080233  MEMB      232             0.0000000000
     26196       232  POPC      C25            33.4447755238        9.4655940732      -13.7173360330  MEMB      232             0.0000000000
     26197       232  POPC      H5R            34.2058878048        8.7031863988      -13.4457416347  MEMB      232             0.0000000000
     26198       232  POPC      H5S            33.3482445972        9.6052563836      -14.8152874265  MEMB      232             0.0000000000
     26199       232  POPC      C26            32.0586183677        8.8397538362      -13.2698770480  MEMB      232             0.0000000000
     26200       232  POPC      H6R            31.7034630133        8.1618393375      -14.0752446793  MEMB      232             0.0000000000
     26201       232  POPC      H6S            31.2556346189        9.6005803269      -13.1665275657  MEMB      232             0.0000000000
     26202       232  POPC      C27            32.1681995437        8.0661420722      -11.9771996181  MEMB      232             0.0000000000
     26203       232  POPC      H7R            32.5782093748        8.7971613620      -11.2479370718  MEMB      232             0.0000000000
     26204       232  POPC      H7S            32.9130965022        7.2592793467      -12.1457884436  MEMB      232             0.0000000000
     26205       232  POPC      C28            30.9115428827        7.3514469759      -11.4271170803  MEMB      232             0.0000000000
     26206       232  POPC      H8R            31.1478696278        6.5620183473      -10.6819505526  MEMB      232             0.0000000000
     26207       232  POPC      H8S            30.3647823192        6.8780326594      -12.2704750891  MEMB      232             0.0000000000
     26208       232  POPC      C29            29.9969344759        8.3491434927      -10.6992070422  MEMB      232             0.0000000000
     26209       232  POPC      H91            29.7629341995        9.3475487177      -11.0972409240  MEMB      232             0.0000000000
     26210       232  POPC      C210           29.4229460244        8.3092391332       -9.4509491148  MEMB      232             0.0000000000
     26211       232  POPC      H101           28.7855071141        9.1377368608       -9.1085122002  MEMB      232             0.0000000000
     26212       232  POPC      C211           29.5729017580        7.1408667194       -8.4713596345  MEMB      232             0.0000000000
     26213       232  POPC      H11R           29.9522637972        6.1814477672       -8.8835740475  MEMB      232             0.0000000000
     26214       232  POPC      H11S           28.5798987890        6.8420387073       -8.0726512436  MEMB      232             0.0000000000
     26215       232  POPC      C212           30.4957312446        7.4678413287       -7.3229761099  MEMB      232             0.0000000000
     26216       232  POPC      H12R           31.4983993165        7.7143802502       -7.7330934894  MEMB      232             0.0000000000
     26217       232  POPC      H12S           30.6440370100        6.6074127768       -6.6359613023  MEMB      232             0.0000000000
     26218       232  POPC      C213           30.1454793120        8.7071493397       -6.5331566555  MEMB      232             0.0000000000
     26219       232  POPC      H13R           29.1071250261        8.9789957207       -6.8199341609  MEMB      232             0.0000000000
     26220       232  POPC      H13S           30.8776708511        9.5090261579       -6.7681254259  MEMB      232             0.0000000000
     26221       232  POPC      C214           30.2621586800        8.4595108641       -4.9567603694  MEMB      232             0.0000000000
     26222       232  POPC      H14R           31.2573769529        8.1515429645       -4.5707333651  MEMB      232             0.0000000000
     26223       232  POPC      H14S           29.5414252465        7.6257873818       -4.8161566951  MEMB      232             0.0000000000
     26224       232  POPC      C215           29.9440349856        9.6907380587       -4.2208996649  MEMB      232             0.0000000000
     26225       232  POPC      H15R           28.9027779484       10.0023293513       -4.4511512943  MEMB      232             0.0000000000
     26226       232  POPC      H15S           30.6044226601       10.5647016653       -4.4063633912  MEMB      232             0.0000000000
     26227       232  POPC      C216           29.9096960471        9.5304951772       -2.6659275495  MEMB      232             0.0000000000
     26228       232  POPC      H16R           29.2078324247        8.6935366643       -2.4629269443  MEMB      232             0.0000000000
     26229       232  POPC      H16S           29.5078387998       10.4175597981       -2.1311861183  MEMB      232             0.0000000000
     26230       232  POPC      C217           31.2630200649        9.2922783516       -1.8964194768  MEMB      232             0.0000000000
     26231       232  POPC      H17R           31.7789300580       10.2590904782       -1.7135728815  MEMB      232             0.0000000000
     26232       232  POPC      H17S           31.9122132302        8.7388240379       -2.6081472412  MEMB      232             0.0000000000
     26233       232  POPC      C218           31.2569670346        8.4627202696       -0.6236918853  MEMB      232             0.0000000000
     26234       232  POPC      H18R           32.2779588673        8.2127046963       -0.2639838032  MEMB      232             0.0000000000
     26235       232  POPC      H18S           30.7772686375        7.4719212077       -0.7737831078  MEMB      232             0.0000000000
     26236       232  POPC      H18T           30.7299228944        8.9652519866        0.2153595367  MEMB      232             0.0000000000
     26237       232  POPC      C33            31.5511482880       13.3701668005      -10.1705430431  MEMB      232             0.0000000000
     26238       232  POPC      H3X            31.0323722689       14.2207011357       -9.6788279086  MEMB      232             0.0000000000
     26239       232  POPC      H3Y            32.6146069930       13.6104484383      -10.3841812806  MEMB      232             0.0000000000
     26240       232  POPC      C34            31.6916298755       12.0874928070       -9.2817160322  MEMB      232             0.0000000000
     26241       232  POPC      H4X            32.1049877229       11.2632720947       -9.9014877483  MEMB      232             0.0000000000
     26242       232  POPC      H4Y            30.6740474124       11.8916974651       -8.8810779405  MEMB      232             0.0000000000
     26243       232  POPC      C35            32.7208002326       12.3088169065       -8.1250817583  MEMB      232             0.0000000000
     26244       232  POPC      H5X            33.6911087262       12.5757731070       -8.5957800825  MEMB      232             0.0000000000
     26245       232  POPC      H5Y            32.9113279586       11.3375875761       -7.6203709701  MEMB      232             0.0000000000
     26246       232  POPC      C36            32.3920026425       13.2684095261       -6.9524336740  MEMB      232             0.0000000000
     26247       232  POPC      H6X            32.1508821189       14.3015915667       -7.2821556832  MEMB      232             0.0000000000
     26248       232  POPC      H6Y            33.2649030333       13.4355963948       -6.2857895052  MEMB      232             0.0000000000
     26249       232  POPC      C37            31.2721168815       12.7700765220       -5.9528361367  MEMB      232             0.0000000000
     26250       232  POPC      H7X            31.5267294743       11.7811204446       -5.5152758051  MEMB      232             0.0000000000
     26251       232  POPC      H7Y            30.3779272981       12.6116535296       -6.5928744476  MEMB      232             0.0000000000
     26252       232  POPC      C38            31.0027589498       13.8017321858       -4.8061343865  MEMB      232             0.0000000000
     26253       232  POPC      H8X            30.2450632722       13.4201647853       -4.0887609522  MEMB      232             0.0000000000
     26254       232  POPC      H8Y            30.5687044412       14.7096910965       -5.2768019369  MEMB      232             0.0000000000
     26255       232  POPC      C39            32.2084839493       14.2044904361       -3.9401834737  MEMB      232             0.0000000000
     26256       232  POPC      H9X            32.8712695236       14.9541115541       -4.4229924733  MEMB      232             0.0000000000
     26257       232  POPC      H9Y            32.7074590724       13.2379119504       -3.7141952896  MEMB      232             0.0000000000
     26258       232  POPC      C310           31.7108014433       14.9435293439       -2.6862205323  MEMB      232             0.0000000000
     26259       232  POPC      H10X           30.7326153016       14.5913687730       -2.2944865146  MEMB      232             0.0000000000
     26260       232  POPC      H10Y           31.3216242911       15.9528539153       -2.9394526885  MEMB      232             0.0000000000
     26261       232  POPC      C311           32.8352948593       15.1217880224       -1.6826863758  MEMB      232             0.0000000000
     26262       232  POPC      H11X           32.3362932615       15.7600985790       -0.9225040954  MEMB      232             0.0000000000
     26263       232  POPC      H11Y           33.7132369303       15.6211152911       -2.1455164546  MEMB      232             0.0000000000
     26264       232  POPC      C312           33.4626279919       13.8485781571       -1.1955669274  MEMB      232             0.0000000000
     26265       232  POPC      H12X           34.1029873865       13.5878583816       -2.0652133998  MEMB      232             0.0000000000
     26266       232  POPC      H12Y           32.6940974527       13.0676373210       -1.0116831245  MEMB      232             0.0000000000
     26267       232  POPC      C313           34.3970172036       14.0718911838       -0.0179211533  MEMB      232             0.0000000000
     26268       232  POPC      H13X           33.8176627514       14.3246864370        0.8957334224  MEMB      232             0.0000000000
     26269       232  POPC      H13Y           35.0833325567       14.8747415229       -0.3624843180  MEMB      232             0.0000000000
     26270       232  POPC      C314           35.1670712694       12.7668035474        0.2974413442  MEMB      232             0.0000000000
     26271       232  POPC      H14X           35.8786457188       12.9561793083        1.1293794191  MEMB      232             0.0000000000
     26272       232  POPC      H14Y           35.7074907611       12.4930820365       -0.6338718704  MEMB      232             0.0000000000
     26273       232  POPC      C315           34.3547560268       11.4660448288        0.6013455979  MEMB      232             0.0000000000
     26274       232  POPC      H15X           35.1201911410       10.7146080143        0.8907828987  MEMB      232             0.0000000000
     26275       232  POPC      H15Y           33.7511518183       11.0682307022       -0.2422920883  MEMB      232             0.0000000000
     26276       232  POPC      C316           33.3604971779       11.5959901688        1.7088710271  MEMB      232             0.0000000000
     26277       232  POPC      H16X           33.9028197295       12.0364038014        2.5727244921  MEMB      232             0.0000000000
     26278       232  POPC      H16Y           32.8376933935       10.6262074194        1.8521143330  MEMB      232             0.0000000000
     26279       232  POPC      H16Z           32.5478550980       12.3043141523        1.4401504144  MEMB      232             0.0000000000
     26280       233  POPC      N              28.6628171106       14.9617777230      -18.3867486603  MEMB      233             0.0000000000
     26281       233  POPC      C12            29.0652898207       16.3925459345      -18.0436804875  MEMB      233             0.0000000000
     26282       233  POPC      H12A           30.0684166222       16.3214114149      -17.6498831061  MEMB      233             0.0000000000
     26283       233  POPC      H12B           28.4848772498       16.6658590833      -17.1748759121  MEMB      233             0.0000000000
     26284       233  POPC      C13            27.2095869007       14.8952301644      -18.8133333311  MEMB      233             0.0000000000
     26285       233  POPC      H13A           26.7518544489       15.7957331887      -18.4312661325  MEMB      233             0.0000000000
     26286       233  POPC      H13B           27.0940096285       14.9919546909      -19.8827660261  MEMB      233             0.0000000000
     26287       233  POPC      H13C           26.7110373329       13.9960810994      -18.4826084327  MEMB      233             0.0000000000
     26288       233  POPC      C14            29.5958371084       14.3929901510      -19.4709190754  MEMB      233             0.0000000000
     26289       233  POPC      H14A           29.6447505784       15.0924281154      -20.2923776305  MEMB      233             0.0000000000
     26290       233  POPC      H14B           30.5992742044       14.3217496810      -19.0779319246  MEMB      233             0.0000000000
     26291       233  POPC      H14C           29.2642816544       13.3901628722      -19.6963261906  MEMB      233             0.0000000000
     26292       233  POPC      C15            28.6893430615       14.1261531727      -17.1322224651  MEMB      233             0.0000000000
     26293       233  POPC      H15A           27.8811324765       14.4423772523      -16.4894178529  MEMB      233             0.0000000000
     26294       233  POPC      H15B           29.6533869984       14.2172931439      -16.6539831442  MEMB      233             0.0000000000
     26295       233  POPC      H15C           28.4905787786       13.1014880733      -17.4096292393  MEMB      233             0.0000000000
     26296       233  POPC      C11            29.1762125326       17.4526825186      -19.1759618982  MEMB      233             0.0000000000
     26297       233  POPC      H11A           29.9376193278       17.0965761798      -19.9024389445  MEMB      233             0.0000000000
     26298       233  POPC      H11B           29.5051943752       18.4309299058      -18.7647150586  MEMB      233             0.0000000000
     26299       233  POPC      P              27.0852245174       18.8900378832      -19.6450013243  MEMB      233             0.0000000000
     26300       233  POPC      O13            25.7237912782       18.6781860008      -20.2644006445  MEMB      233             0.0000000000
     26301       233  POPC      O14            27.7933065988       20.0494377495      -20.1013945836  MEMB      233             0.0000000000
     26302       233  POPC      O12            27.9404446774       17.4903474032      -19.9108061114  MEMB      233             0.0000000000
     26303       233  POPC      O11            27.0783601899       18.8914009649      -18.0555314167  MEMB      233             0.0000000000
     26304       233  POPC      C1             26.4674735867       20.0796589763      -17.5124338032  MEMB      233             0.0000000000
     26305       233  POPC      HA             25.3593622134       20.0058147488      -17.4814927308  MEMB      233             0.0000000000
     26306       233  POPC      HB             26.7742456283       20.9159455925      -18.1763889914  MEMB      233             0.0000000000
     26307       233  POPC      C2             27.0570595659       20.2391426073      -16.1006254793  MEMB      233             0.0000000000
     26308       233  POPC      HS             28.1273905257       20.5356218416      -16.0721154590  MEMB      233             0.0000000000
     26309       233  POPC      O21            26.8400997938       19.0145119267      -15.3192303395  MEMB      233             0.0000000000
     26310       233  POPC      C21            27.9209634895       18.2977207128      -14.9908649820  MEMB      233             0.0000000000
     26311       233  POPC      O22            29.0583160242       18.5520619991      -15.3458502822  MEMB      233             0.0000000000
     26312       233  POPC      C22            27.5199238877       17.2554326726      -13.9381244174  MEMB      233             0.0000000000
     26313       233  POPC      H2R            27.2395624974       16.3815454434      -14.5642554909  MEMB      233             0.0000000000
     26314       233  POPC      H2S            26.6524799577       17.6102781189      -13.3415119122  MEMB      233             0.0000000000
     26315       233  POPC      C3             26.3216333955       21.4653014008      -15.4649236305  MEMB      233             0.0000000000
     26316       233  POPC      HX             25.2428791172       21.3216419210      -15.6884675102  MEMB      233             0.0000000000
     26317       233  POPC      HY             26.8093284620       22.3194079027      -15.9816213167  MEMB      233             0.0000000000
     26318       233  POPC      O31            26.7046503821       21.4592093842      -14.0934236148  MEMB      233             0.0000000000
     26319       233  POPC      C31            25.6977390960       21.4928010298      -13.1874011901  MEMB      233             0.0000000000
     26320       233  POPC      O32            24.5161646683       21.6531043639      -13.4070354568  MEMB      233             0.0000000000
     26321       233  POPC      C32            26.3882661523       21.2554910140      -11.7811674628  MEMB      233             0.0000000000
     26322       233  POPC      H2X            27.1208976268       22.0859079943      -11.6918391790  MEMB      233             0.0000000000
     26323       233  POPC      H2Y            26.9812870553       20.3395283676      -11.9901169969  MEMB      233             0.0000000000
     26324       233  POPC      C23            28.6005505675       16.8661941653      -13.0045338328  MEMB      233             0.0000000000
     26325       233  POPC      H3R            29.1542656716       17.7825543462      -12.7078781076  MEMB      233             0.0000000000
     26326       233  POPC      H3S            29.3352924173       16.1675135925      -13.4587590853  MEMB      233             0.0000000000
     26327       233  POPC      C24            28.0600109988       16.3006457184      -11.6843046231  MEMB      233             0.0000000000
     26328       233  POPC      H4R            27.4297057766       15.4027688178      -11.8599558723  MEMB      233             0.0000000000
     26329       233  POPC      H4S            27.2886922105       17.0188138896      -11.3327037422  MEMB      233             0.0000000000
     26330       233  POPC      C25            29.0885995961       15.9444977132      -10.6258066757  MEMB      233             0.0000000000
     26331       233  POPC      H5R            29.7171226816       16.8606164194      -10.6232931142  MEMB      233             0.0000000000
     26332       233  POPC      H5S            29.8219714187       15.1463525435      -10.8696322022  MEMB      233             0.0000000000
     26333       233  POPC      C26            28.5400310248       15.6637175355       -9.2395250838  MEMB      233             0.0000000000
     26334       233  POPC      H6R            29.3322364240       15.1786616856       -8.6300565184  MEMB      233             0.0000000000
     26335       233  POPC      H6S            27.6332004655       15.0297380749       -9.3397721781  MEMB      233             0.0000000000
     26336       233  POPC      C27            28.0062192032       16.9589946428       -8.5166924784  MEMB      233             0.0000000000
     26337       233  POPC      H7R            27.0665695166       17.3111984629       -8.9934856262  MEMB      233             0.0000000000
     26338       233  POPC      H7S            28.7233908289       17.7750842379       -8.7490358244  MEMB      233             0.0000000000
     26339       233  POPC      C28            27.8030205212       16.6766477781       -7.0298900841  MEMB      233             0.0000000000
     26340       233  POPC      H8R            28.6273275094       16.0638097251       -6.6064893483  MEMB      233             0.0000000000
     26341       233  POPC      H8S            26.8465068954       16.1166496360       -6.9537003640  MEMB      233             0.0000000000
     26342       233  POPC      C29            27.7755736080       17.9681488777       -6.2474402309  MEMB      233             0.0000000000
     26343       233  POPC      H91            26.9513322997       18.6371189777       -6.5357199259  MEMB      233             0.0000000000
     26344       233  POPC      C210           28.6822018565       18.4636813148       -5.4222337262  MEMB      233             0.0000000000
     26345       233  POPC      H101           28.3478299573       19.3543337567       -4.8700254397  MEMB      233             0.0000000000
     26346       233  POPC      C211           29.9985643054       17.9103654954       -4.9325214392  MEMB      233             0.0000000000
     26347       233  POPC      H11R           30.7327351552       18.7423768629       -4.9879407304  MEMB      233             0.0000000000
     26348       233  POPC      H11S           30.3078149632       17.0958157334       -5.6218647106  MEMB      233             0.0000000000
     26349       233  POPC      C212           29.9560045273       17.2484788594       -3.5348488353  MEMB      233             0.0000000000
     26350       233  POPC      H12R           29.3962556184       17.9851319179       -2.9197504748  MEMB      233             0.0000000000
     26351       233  POPC      H12S           30.9352634387       17.3745524881       -3.0254572653  MEMB      233             0.0000000000
     26352       233  POPC      C213           29.2646347236       15.9299543643       -3.3258420781  MEMB      233             0.0000000000
     26353       233  POPC      H13R           29.0552428161       15.5482195497       -4.3479752024  MEMB      233             0.0000000000
     26354       233  POPC      H13S           28.2909478400       16.1809493128       -2.8533421603  MEMB      233             0.0000000000
     26355       233  POPC      C214           30.1421839951       14.9610490435       -2.5528150173  MEMB      233             0.0000000000
     26356       233  POPC      H14R           31.1605731623       14.9787338431       -2.9965389012  MEMB      233             0.0000000000
     26357       233  POPC      H14S           29.8224263144       13.9017861433       -2.4526236204  MEMB      233             0.0000000000
     26358       233  POPC      C215           30.2558909718       15.2423980280       -1.0026072263  MEMB      233             0.0000000000
     26359       233  POPC      H15R           29.3089308153       15.0094324648       -0.4703342622  MEMB      233             0.0000000000
     26360       233  POPC      H15S           30.4452951447       16.3232373255       -0.8287296722  MEMB      233             0.0000000000
     26361       233  POPC      C216           31.4611188076       14.5397227523       -0.3065852211  MEMB      233             0.0000000000
     26362       233  POPC      H16R           32.4178991386       14.8898773310       -0.7496254005  MEMB      233             0.0000000000
     26363       233  POPC      H16S           31.3513833716       13.5113767781       -0.7125208883  MEMB      233             0.0000000000
     26364       233  POPC      C217           31.6515896827       14.5335662568        1.1953192152  MEMB      233             0.0000000000
     26365       233  POPC      H17R           32.4127331433       13.7953059013        1.5269111721  MEMB      233             0.0000000000
     26366       233  POPC      H17S           30.6587266587       14.1634449620        1.5293170058  MEMB      233             0.0000000000
     26367       233  POPC      C218           31.9515324105       15.8558545094        1.7249772662  MEMB      233             0.0000000000
     26368       233  POPC      H18R           31.4392760327       16.6696732008        1.1685493914  MEMB      233             0.0000000000
     26369       233  POPC      H18S           33.0427157373       16.0645306818        1.7346996519  MEMB      233             0.0000000000
     26370       233  POPC      H18T           31.4982152713       16.1845221968        2.6845622515  MEMB      233             0.0000000000
     26371       233  POPC      C33            25.3923538147       21.1763106227      -10.6468220484  MEMB      233             0.0000000000
     26372       233  POPC      H3X            24.8863051010       20.1886988618      -10.7002880229  MEMB      233             0.0000000000
     26373       233  POPC      H3Y            24.7117818265       22.0519089162      -10.7136811958  MEMB      233             0.0000000000
     26374       233  POPC      C34            26.0903143007       21.1967812988       -9.2418996466  MEMB      233             0.0000000000
     26375       233  POPC      H4X            26.7708937813       22.0590660264       -9.4080257018  MEMB      233             0.0000000000
     26376       233  POPC      H4Y            26.6656185050       20.2491500262       -9.1688166785  MEMB      233             0.0000000000
     26377       233  POPC      C35            25.2249832687       21.3650391258       -7.9554468852  MEMB      233             0.0000000000
     26378       233  POPC      H5X            24.5352309861       22.2359756238       -7.9611485202  MEMB      233             0.0000000000
     26379       233  POPC      H5Y            26.0204837350       21.5402006756       -7.1999212667  MEMB      233             0.0000000000
     26380       233  POPC      C36            24.5794788359       20.0455043229       -7.6101724347  MEMB      233             0.0000000000
     26381       233  POPC      H6X            25.0912754276       19.1634672820       -8.0510756335  MEMB      233             0.0000000000
     26382       233  POPC      H6Y            23.5062117838       19.9985348729       -7.8933911334  MEMB      233             0.0000000000
     26383       233  POPC      C37            24.5270283331       19.7252170486       -6.1070039860  MEMB      233             0.0000000000
     26384       233  POPC      H7X            23.7428153711       20.3878533591       -5.6824521685  MEMB      233             0.0000000000
     26385       233  POPC      H7Y            25.4370378379       20.0418884179       -5.5539005017  MEMB      233             0.0000000000
     26386       233  POPC      C38            24.2237389149       18.2092243362       -5.8495200508  MEMB      233             0.0000000000
     26387       233  POPC      H8X            25.1692244575       17.6401006118       -5.7211589077  MEMB      233             0.0000000000
     26388       233  POPC      H8Y            23.7086370093       17.7244160403       -6.7062304444  MEMB      233             0.0000000000
     26389       233  POPC      C39            23.3986036534       17.9146922781       -4.5562651855  MEMB      233             0.0000000000
     26390       233  POPC      H9X            23.4514011009       16.8087523821       -4.4644471357  MEMB      233             0.0000000000
     26391       233  POPC      H9Y            22.3838426269       18.3669822909       -4.5601325017  MEMB      233             0.0000000000
     26392       233  POPC      C310           24.0530593955       18.3210053301       -3.3090257321  MEMB      233             0.0000000000
     26393       233  POPC      H10X           23.2762645942       18.3406199732       -2.5149697515  MEMB      233             0.0000000000
     26394       233  POPC      H10Y           24.3063877241       19.3795280617       -3.5319064579  MEMB      233             0.0000000000
     26395       233  POPC      C311           25.3178900023       17.5200412320       -2.9054885881  MEMB      233             0.0000000000
     26396       233  POPC      H11X           26.0872299543       17.8284601614       -3.6452964242  MEMB      233             0.0000000000
     26397       233  POPC      H11Y           25.0887101091       16.4330283519       -2.9196488867  MEMB      233             0.0000000000
     26398       233  POPC      C312           25.7609900652       17.9459624388       -1.4047860775  MEMB      233             0.0000000000
     26399       233  POPC      H12X           26.4423603764       17.1373922539       -1.0638021083  MEMB      233             0.0000000000
     26400       233  POPC      H12Y           24.9731329518       17.8829277535       -0.6239981166  MEMB      233             0.0000000000
     26401       233  POPC      C313           26.4859215500       19.2492221122       -1.3672675867  MEMB      233             0.0000000000
     26402       233  POPC      H13X           25.8957683759       20.0444157247       -1.8709599072  MEMB      233             0.0000000000
     26403       233  POPC      H13Y           27.4223188717       19.3555678604       -1.9556314356  MEMB      233             0.0000000000
     26404       233  POPC      C314           26.7469345127       19.6293009701        0.0571842914  MEMB      233             0.0000000000
     26405       233  POPC      H14X           25.8755493543       19.8698354846        0.7030560068  MEMB      233             0.0000000000
     26406       233  POPC      H14Y           27.3805042168       20.5417458093        0.0760205414  MEMB      233             0.0000000000
     26407       233  POPC      C315           27.5233544296       18.5612587858        1.0140365357  MEMB      233             0.0000000000
     26408       233  POPC      H15X           28.4348232698       18.1567277367        0.5242406049  MEMB      233             0.0000000000
     26409       233  POPC      H15Y           26.8408822060       17.6889675286        1.1015618523  MEMB      233             0.0000000000
     26410       233  POPC      C316           27.9464558790       18.9912761492        2.4729443081  MEMB      233             0.0000000000
     26411       233  POPC      H16X           28.3050417091       18.0573556303        2.9561932597  MEMB      233             0.0000000000
     26412       233  POPC      H16Y           27.1482125356       19.3819366744        3.1396629087  MEMB      233             0.0000000000
     26413       233  POPC      H16Z           28.7878947071       19.7154039494        2.5169994911  MEMB      233             0.0000000000
     26414       234  POPE      N              16.5424337270       26.7363884263      -17.3254743210  MEMB      234             0.0000000000
     26415       234  POPE      HN1            15.9847143284       27.4152037009      -17.8820341039  MEMB      234             0.0000000000
     26416       234  POPE      HN2            16.0271862267       26.1628550753      -16.6274917635  MEMB      234             0.0000000000
     26417       234  POPE      HN3            17.1564751998       27.4048150825      -16.8177748117  MEMB      234             0.0000000000
     26418       234  POPE      C12            17.2573665174       25.8647427849      -18.3560975483  MEMB      234             0.0000000000
     26419       234  POPE      H12A           16.5484031410       25.6194758802      -19.1755706284  MEMB      234             0.0000000000
     26420       234  POPE      H12B           17.4561968762       24.9347726371      -17.7816908488  MEMB      234             0.0000000000
     26421       234  POPE      C11            18.6029492455       26.4217632908      -18.8915066804  MEMB      234             0.0000000000
     26422       234  POPE      H11A           19.1454476410       25.6468690722      -19.4742203250  MEMB      234             0.0000000000
     26423       234  POPE      H11B           19.2107316954       26.6788506132      -17.9977351288  MEMB      234             0.0000000000
     26424       234  POPE      P              18.5252820338       28.9862120912      -19.5425672890  MEMB      234             0.0000000000
     26425       234  POPE      O13            17.3291364537       29.7105817307      -19.9716884982  MEMB      234             0.0000000000
     26426       234  POPE      O14            19.8476082513       29.5038042421      -20.0713629159  MEMB      234             0.0000000000
     26427       234  POPE      O11            18.5765980473       29.1047771795      -17.9862552551  MEMB      234             0.0000000000
     26428       234  POPE      O12            18.2875865217       27.4446246558      -19.8550474923  MEMB      234             0.0000000000
     26429       234  POPE      C1             19.0994687672       30.3649511344      -17.5073268856  MEMB      234             0.0000000000
     26430       234  POPE      HA             18.7626853261       31.2725254969      -18.0524936268  MEMB      234             0.0000000000
     26431       234  POPE      HB             20.2055337168       30.2762415036      -17.4519007200  MEMB      234             0.0000000000
     26432       234  POPE      C2             18.6403807772       30.3951739698      -16.0358778176  MEMB      234             0.0000000000
     26433       234  POPE      HS             19.4653696418       30.8731421390      -15.4655615462  MEMB      234             0.0000000000
     26434       234  POPE      O21            18.3163627763       29.1270915863      -15.5300361786  MEMB      234             0.0000000000
     26435       234  POPE      C21            19.3014958462       28.5131149417      -14.8729404789  MEMB      234             0.0000000000
     26436       234  POPE      O22            20.3293713083       28.9999228952      -14.4137597225  MEMB      234             0.0000000000
     26437       234  POPE      C22            18.8449987303       27.1023112903      -14.7072809759  MEMB      234             0.0000000000
     26438       234  POPE      H2R            19.6588448635       26.3468501337      -14.7426890989  MEMB      234             0.0000000000
     26439       234  POPE      H2S            18.1221669560       26.9132773371      -15.5295348428  MEMB      234             0.0000000000
     26440       234  POPE      C3             17.3581547329       31.2613802997      -15.8558461426  MEMB      234             0.0000000000
     26441       234  POPE      HX             16.6776091644       30.7173937465      -16.5452353251  MEMB      234             0.0000000000
     26442       234  POPE      HY             17.5913873247       32.2629666073      -16.2762604493  MEMB      234             0.0000000000
     26443       234  POPE      O31            16.8751918771       31.4081069506      -14.4800788815  MEMB      234             0.0000000000
     26444       234  POPE      C31            16.0006425454       30.4693509929      -14.0587774707  MEMB      234             0.0000000000
     26445       234  POPE      O32            15.3475249910       29.7412906995      -14.8066305767  MEMB      234             0.0000000000
     26446       234  POPE      C32            15.7841512692       30.4913005706      -12.5928854735  MEMB      234             0.0000000000
     26447       234  POPE      H2X            15.9817744289       31.5369705138      -12.2737606015  MEMB      234             0.0000000000
     26448       234  POPE      H2Y            16.4907168743       29.8341139643      -12.0422571696  MEMB      234             0.0000000000
     26449       234  POPE      C23            18.1433063900       26.9177140355      -13.3227586966  MEMB      234             0.0000000000
     26450       234  POPE      H3R            17.5554683155       25.9796717375      -13.4168013551  MEMB      234             0.0000000000
     26451       234  POPE      H3S            17.4276474567       27.7595499222      -13.2067170860  MEMB      234             0.0000000000
     26452       234  POPE      C24            18.9340897118       26.9008560723      -12.0346261514  MEMB      234             0.0000000000
     26453       234  POPE      H4R            18.9937025325       27.9769951737      -11.7650119489  MEMB      234             0.0000000000
     26454       234  POPE      H4S            19.9427576463       26.4927261228      -12.2589919592  MEMB      234             0.0000000000
     26455       234  POPE      C25            18.4646519615       26.0251703221      -10.8120617700  MEMB      234             0.0000000000
     26456       234  POPE      H5R            18.3718309632       24.9823852307      -11.1839547581  MEMB      234             0.0000000000
     26457       234  POPE      H5S            17.4791660125       26.4801561949      -10.5751518305  MEMB      234             0.0000000000
     26458       234  POPE      C26            19.4391761023       25.9912225966       -9.6097315610  MEMB      234             0.0000000000
     26459       234  POPE      H6R            20.5266889764       25.9513288095       -9.8334396731  MEMB      234             0.0000000000
     26460       234  POPE      H6S            19.1799382642       25.1461905893       -8.9366509675  MEMB      234             0.0000000000
     26461       234  POPE      C27            19.2921037299       27.2325729808       -8.7517815282  MEMB      234             0.0000000000
     26462       234  POPE      H7R            18.2233466572       27.3223651584       -8.4619252282  MEMB      234             0.0000000000
     26463       234  POPE      H7S            19.7026186617       28.0344114366       -9.4020528818  MEMB      234             0.0000000000
     26464       234  POPE      C28            20.2203304873       27.1724579283       -7.5656325658  MEMB      234             0.0000000000
     26465       234  POPE      H8R            21.2649404902       27.1350421940       -7.9420773354  MEMB      234             0.0000000000
     26466       234  POPE      H8S            20.0931958776       26.3385183520       -6.8426503020  MEMB      234             0.0000000000
     26467       234  POPE      C29            20.1972479063       28.4989334517       -6.6849560528  MEMB      234             0.0000000000
     26468       234  POPE      H91            20.0499452263       29.4499372379       -7.2177724920  MEMB      234             0.0000000000
     26469       234  POPE      C210           20.5222637784       28.5393808665       -5.3936263103  MEMB      234             0.0000000000
     26470       234  POPE      H101           20.4669124841       29.4959421371       -4.8533239806  MEMB      234             0.0000000000
     26471       234  POPE      C211           21.0044340674       27.4850933259       -4.4548821798  MEMB      234             0.0000000000
     26472       234  POPE      H11R           21.3550438803       28.0567560670       -3.5691077701  MEMB      234             0.0000000000
     26473       234  POPE      H11S           21.8732470280       26.9667062786       -4.9139682947  MEMB      234             0.0000000000
     26474       234  POPE      C212           19.9514081708       26.4671403754       -3.9787264803  MEMB      234             0.0000000000
     26475       234  POPE      H12R           20.4595544676       25.7921344949       -3.2572869749  MEMB      234             0.0000000000
     26476       234  POPE      H12S           19.6633397644       25.7428651960       -4.7704100630  MEMB      234             0.0000000000
     26477       234  POPE      C213           18.6970863189       27.0002102259       -3.2495307236  MEMB      234             0.0000000000
     26478       234  POPE      H13R           18.1334479097       26.0509224870       -3.1250894714  MEMB      234             0.0000000000
     26479       234  POPE      H13S           18.0630789325       27.6566132373       -3.8831642970  MEMB      234             0.0000000000
     26480       234  POPE      C214           18.8303784413       27.6826563619       -1.8771686286  MEMB      234             0.0000000000
     26481       234  POPE      H14R           19.3694936129       28.6478260812       -1.9872726470  MEMB      234             0.0000000000
     26482       234  POPE      H14S           19.4848819238       27.0805158085       -1.2113056503  MEMB      234             0.0000000000
     26483       234  POPE      C215           17.4620833137       27.8936069629       -1.0797222802  MEMB      234             0.0000000000
     26484       234  POPE      H15R           17.7429221068       28.3867806939       -0.1246149544  MEMB      234             0.0000000000
     26485       234  POPE      H15S           17.0051383924       26.8962263949       -0.9043536550  MEMB      234             0.0000000000
     26486       234  POPE      C216           16.4584036558       28.8005469619       -1.7657502504  MEMB      234             0.0000000000
     26487       234  POPE      H16R           16.1214533526       28.1488422668       -2.6000564875  MEMB      234             0.0000000000
     26488       234  POPE      H16S           16.8281555436       29.7322579333       -2.2448332072  MEMB      234             0.0000000000
     26489       234  POPE      C217           15.3330218324       29.0062940421       -0.7574032819  MEMB      234             0.0000000000
     26490       234  POPE      H17R           15.0029021592       28.1060474852       -0.1962449162  MEMB      234             0.0000000000
     26491       234  POPE      H17S           14.4324220071       29.3006440921       -1.3375761442  MEMB      234             0.0000000000
     26492       234  POPE      C218           15.5949242713       30.1546021664        0.2456303692  MEMB      234             0.0000000000
     26493       234  POPE      H18R           16.3670586115       29.7898057266        0.9563017538  MEMB      234             0.0000000000
     26494       234  POPE      H18S           14.6923256106       30.4654704264        0.8139607482  MEMB      234             0.0000000000
     26495       234  POPE      H18T           15.9479887787       31.0842025600       -0.2498568201  MEMB      234             0.0000000000
     26496       234  POPE      C33            14.3428255669       30.0621931893      -12.3207135011  MEMB      234             0.0000000000
     26497       234  POPE      H3X            14.2162119390       28.9768274688      -12.5213897688  MEMB      234             0.0000000000
     26498       234  POPE      H3Y            13.5752718523       30.5696486391      -12.9433461440  MEMB      234             0.0000000000
     26499       234  POPE      C34            13.7937909242       30.4054052056      -10.9770335227  MEMB      234             0.0000000000
     26500       234  POPE      H4X            12.8015998351       29.9447836400      -10.7828543043  MEMB      234             0.0000000000
     26501       234  POPE      H4Y            13.6400104421       31.4989350139      -10.8551105610  MEMB      234             0.0000000000
     26502       234  POPE      C35            14.7515893034       30.0319060571       -9.7736406663  MEMB      234             0.0000000000
     26503       234  POPE      H5X            14.4399749030       30.5747162646       -8.8557224663  MEMB      234             0.0000000000
     26504       234  POPE      H5Y            15.8088195682       30.2742661070      -10.0141541020  MEMB      234             0.0000000000
     26505       234  POPE      C36            14.7704793313       28.4995403016       -9.4922222290  MEMB      234             0.0000000000
     26506       234  POPE      H6X            15.4721919421       28.0654149693      -10.2361682356  MEMB      234             0.0000000000
     26507       234  POPE      H6Y            13.7684171313       28.0630681927       -9.6914327674  MEMB      234             0.0000000000
     26508       234  POPE      C37            15.2401086261       28.1395838744       -8.1413550347  MEMB      234             0.0000000000
     26509       234  POPE      H7X            15.9449252059       28.9260975392       -7.7964626248  MEMB      234             0.0000000000
     26510       234  POPE      H7Y            15.8464925809       27.2265653579       -8.3230600794  MEMB      234             0.0000000000
     26511       234  POPE      C38            14.1741034439       27.9330371212       -7.0542252584  MEMB      234             0.0000000000
     26512       234  POPE      H8X            13.4654513819       27.1945505155       -7.4863954414  MEMB      234             0.0000000000
     26513       234  POPE      H8Y            13.4970810036       28.7904763068       -6.8523345805  MEMB      234             0.0000000000
     26514       234  POPE      C39            14.7844945634       27.4283660609       -5.7498991087  MEMB      234             0.0000000000
     26515       234  POPE      H9X            14.3155320635       27.9396229718       -4.8821358196  MEMB      234             0.0000000000
     26516       234  POPE      H9Y            15.8403124645       27.7143886168       -5.5555785325  MEMB      234             0.0000000000
     26517       234  POPE      C310           14.5899705281       25.8357997894       -5.5932432428  MEMB      234             0.0000000000
     26518       234  POPE      H10X           15.4096052363       25.3315213352       -6.1484219540  MEMB      234             0.0000000000
     26519       234  POPE      H10Y           13.6047850730       25.5060260873       -5.9869181210  MEMB      234             0.0000000000
     26520       234  POPE      C311           14.6100272867       25.3640564303       -4.1193896447  MEMB      234             0.0000000000
     26521       234  POPE      H11X           13.6746921994       25.6855399714       -3.6133092466  MEMB      234             0.0000000000
     26522       234  POPE      H11Y           15.4598087686       25.9275242550       -3.6781454656  MEMB      234             0.0000000000
     26523       234  POPE      C312           14.7086872994       23.8209920657       -4.1334031767  MEMB      234             0.0000000000
     26524       234  POPE      H12X           15.5810990907       23.4629318738       -4.7207801393  MEMB      234             0.0000000000
     26525       234  POPE      H12Y           13.7696257169       23.4995797076       -4.6325811970  MEMB      234             0.0000000000
     26526       234  POPE      C313           14.7618854623       23.2860303819       -2.7397381945  MEMB      234             0.0000000000
     26527       234  POPE      H13X           14.7029701282       22.1768925804       -2.7139861169  MEMB      234             0.0000000000
     26528       234  POPE      H13Y           13.9156310283       23.6822875819       -2.1387768053  MEMB      234             0.0000000000
     26529       234  POPE      C314           16.0654929174       23.7714174770       -2.0460400411  MEMB      234             0.0000000000
     26530       234  POPE      H14X           16.0916864793       24.8295058085       -1.7082763045  MEMB      234             0.0000000000
     26531       234  POPE      H14Y           16.9688773004       23.7024740975       -2.6890520368  MEMB      234             0.0000000000
     26532       234  POPE      C315           16.4575289539       23.0219156260       -0.7643587789  MEMB      234             0.0000000000
     26533       234  POPE      H15X           17.3972058547       23.4078503738       -0.3144903970  MEMB      234             0.0000000000
     26534       234  POPE      H15Y           16.4998401542       21.9505218157       -1.0553006842  MEMB      234             0.0000000000
     26535       234  POPE      C316           15.4195597180       23.1758966141        0.3415917709  MEMB      234             0.0000000000
     26536       234  POPE      H16X           15.7340636492       22.5916771561        1.2327124869  MEMB      234             0.0000000000
     26537       234  POPE      H16Y           14.3916639263       22.8562329318        0.0666984813  MEMB      234             0.0000000000
     26538       234  POPE      H16Z           15.3847055144       24.2436644045        0.6465134769  MEMB      234             0.0000000000
     26539       235  POPE      N              -1.0376213654      -30.2082028506      -18.1859090685  MEMB      235             0.0000000000
     26540       235  POPE      HN1            -0.4579276893      -30.9183022620      -17.6946717221  MEMB      235             0.0000000000
     26541       235  POPE      HN2            -0.8891126206      -29.2373474400      -17.8438784923  MEMB      235             0.0000000000
     26542       235  POPE      HN3            -2.0331056086      -30.4349170821      -17.9878897809  MEMB      235             0.0000000000
     26543       235  POPE      C12            -0.7412318680      -30.2684778587      -19.6617485693  MEMB      235             0.0000000000
     26544       235  POPE      H12A           -1.7120963376      -30.1553969849      -20.1899112578  MEMB      235             0.0000000000
     26545       235  POPE      H12B           -0.2405472646      -31.2429794455      -19.8460919182  MEMB      235             0.0000000000
     26546       235  POPE      C11             0.2488828304      -29.1191876938      -20.1680039507  MEMB      235             0.0000000000
     26547       235  POPE      H11A            0.1660699455      -28.1396702227      -19.6503085991  MEMB      235             0.0000000000
     26548       235  POPE      H11B           -0.0472009494      -29.1668106213      -21.2377644113  MEMB      235             0.0000000000
     26549       235  POPE      P               2.5719664304      -29.1623728020      -18.8213098788  MEMB      235             0.0000000000
     26550       235  POPE      O13             2.5660118816      -27.6742233349      -18.9107131008  MEMB      235             0.0000000000
     26551       235  POPE      O14             3.8735116631      -29.8399477146      -18.6736620466  MEMB      235             0.0000000000
     26552       235  POPE      O11             1.7079209629      -29.5867475270      -17.5430242629  MEMB      235             0.0000000000
     26553       235  POPE      O12             1.5942972459      -29.6753186248      -20.0356291203  MEMB      235             0.0000000000
     26554       235  POPE      C1              2.0574589213      -30.7112039981      -16.6939622290  MEMB      235             0.0000000000
     26555       235  POPE      HA              3.0402694627      -30.5404067146      -16.2048478949  MEMB      235             0.0000000000
     26556       235  POPE      HB              2.1374250672      -31.6245762939      -17.3213993510  MEMB      235             0.0000000000
     26557       235  POPE      C2              1.1259944323      -30.7938312854      -15.5073720677  MEMB      235             0.0000000000
     26558       235  POPE      HS              0.0877005411      -31.1018414350      -15.7551553559  MEMB      235             0.0000000000
     26559       235  POPE      O21             1.1822459954      -29.4625978750      -14.9855923554  MEMB      235             0.0000000000
     26560       235  POPE      C21             0.2684554272      -29.1448435533      -14.1152491833  MEMB      235             0.0000000000
     26561       235  POPE      O22            -0.7270588755      -29.8144087830      -13.8801651422  MEMB      235             0.0000000000
     26562       235  POPE      C22             0.6210679583      -27.9290203882      -13.3041823666  MEMB      235             0.0000000000
     26563       235  POPE      H2R             0.9597849819      -28.1477644163      -12.2689324940  MEMB      235             0.0000000000
     26564       235  POPE      H2S            -0.3664404981      -27.4455249599      -13.1448709469  MEMB      235             0.0000000000
     26565       235  POPE      C3              1.6227037124      -31.8084259764      -14.3558369778  MEMB      235             0.0000000000
     26566       235  POPE      HX              1.6826476597      -32.8212640642      -14.8084813973  MEMB      235             0.0000000000
     26567       235  POPE      HY              0.9701943302      -31.8362660280      -13.4570727554  MEMB      235             0.0000000000
     26568       235  POPE      O31             2.9980201261      -31.5209907439      -13.9860742523  MEMB      235             0.0000000000
     26569       235  POPE      C31             3.2777337189      -31.1851003881      -12.7060266665  MEMB      235             0.0000000000
     26570       235  POPE      O32             2.4868771243      -31.1366711804      -11.8286811386  MEMB      235             0.0000000000
     26571       235  POPE      C32             4.7402742858      -30.8406083798      -12.5496300109  MEMB      235             0.0000000000
     26572       235  POPE      H2X             4.8474918951      -30.1825960283      -11.6608975779  MEMB      235             0.0000000000
     26573       235  POPE      H2Y             4.9930245236      -30.2841797918      -13.4774366334  MEMB      235             0.0000000000
     26574       235  POPE      C23             1.5448568045      -26.9560834576      -14.0431795646  MEMB      235             0.0000000000
     26575       235  POPE      H3R             1.4612403513      -25.9968636744      -13.4888990786  MEMB      235             0.0000000000
     26576       235  POPE      H3S             1.2620087295      -26.7543754252      -15.0984672391  MEMB      235             0.0000000000
     26577       235  POPE      C24             3.0424985260      -27.3224239704      -14.0223730841  MEMB      235             0.0000000000
     26578       235  POPE      H4R             3.5688951505      -26.5696124265      -14.6472746759  MEMB      235             0.0000000000
     26579       235  POPE      H4S             3.2155974944      -28.3201056703      -14.4795258910  MEMB      235             0.0000000000
     26580       235  POPE      C25             3.6764511385      -27.3002045416      -12.6489216655  MEMB      235             0.0000000000
     26581       235  POPE      H5R             4.7295266167      -27.6520281156      -12.6885838644  MEMB      235             0.0000000000
     26582       235  POPE      H5S             3.2226283209      -28.0691184637      -11.9877583994  MEMB      235             0.0000000000
     26583       235  POPE      C26             3.5928429401      -25.9238381853      -12.0349092074  MEMB      235             0.0000000000
     26584       235  POPE      H6R             2.5376107745      -25.6509743589      -11.8196153413  MEMB      235             0.0000000000
     26585       235  POPE      H6S             3.9606451715      -25.2234856838      -12.8150046339  MEMB      235             0.0000000000
     26586       235  POPE      C27             4.4959074381      -25.8454149434      -10.8012708034  MEMB      235             0.0000000000
     26587       235  POPE      H7R             4.5210751484      -24.7841252133      -10.4736243219  MEMB      235             0.0000000000
     26588       235  POPE      H7S             5.5057039327      -26.1594209699      -11.1419063739  MEMB      235             0.0000000000
     26589       235  POPE      C28             4.0952893081      -26.6200480862       -9.5550531045  MEMB      235             0.0000000000
     26590       235  POPE      H8R             4.9553358024      -26.4801917258       -8.8657917660  MEMB      235             0.0000000000
     26591       235  POPE      H8S             4.0792640476      -27.7260618445       -9.6589651987  MEMB      235             0.0000000000
     26592       235  POPE      C29             2.6983310320      -26.3305778570       -9.0407777079  MEMB      235             0.0000000000
     26593       235  POPE      H91             2.6168063025      -25.2457071034       -8.8782675007  MEMB      235             0.0000000000
     26594       235  POPE      C210            1.6800665457      -27.1786571470       -8.6862950495  MEMB      235             0.0000000000
     26595       235  POPE      H101            0.8236332467      -26.6489420934       -8.2436618992  MEMB      235             0.0000000000
     26596       235  POPE      C211            1.7300439420      -28.6618021343       -8.6663926660  MEMB      235             0.0000000000
     26597       235  POPE      H11R            2.2929750204      -28.9852386946       -9.5679573311  MEMB      235             0.0000000000
     26598       235  POPE      H11S            0.6739906143      -28.9669163784       -8.8275707826  MEMB      235             0.0000000000
     26599       235  POPE      C212            2.3649796590      -29.2768969905       -7.3688492569  MEMB      235             0.0000000000
     26600       235  POPE      H12R            3.4389283006      -28.9927778067       -7.3536478903  MEMB      235             0.0000000000
     26601       235  POPE      H12S            2.3316327417      -30.3743562393       -7.5385325097  MEMB      235             0.0000000000
     26602       235  POPE      C213            1.6306738658      -28.9829565786       -6.0647588839  MEMB      235             0.0000000000
     26603       235  POPE      H13R            0.5485823456      -29.1952957542       -6.2000778756  MEMB      235             0.0000000000
     26604       235  POPE      H13S            1.7314795951      -27.8862648659       -5.9183813247  MEMB      235             0.0000000000
     26605       235  POPE      C214            2.1258631680      -29.7368996928       -4.8440449847  MEMB      235             0.0000000000
     26606       235  POPE      H14R            2.9972605935      -29.1773258800       -4.4417209350  MEMB      235             0.0000000000
     26607       235  POPE      H14S            2.4990143970      -30.7512345833       -5.1013462265  MEMB      235             0.0000000000
     26608       235  POPE      C215            1.0471311273      -29.8131818391       -3.7015022230  MEMB      235             0.0000000000
     26609       235  POPE      H15R            0.1397679453      -30.4478279052       -3.7922618355  MEMB      235             0.0000000000
     26610       235  POPE      H15S            0.7462353154      -28.7471493921       -3.6157241270  MEMB      235             0.0000000000
     26611       235  POPE      C216            1.6998411719      -29.8977621103       -2.2053117620  MEMB      235             0.0000000000
     26612       235  POPE      H16R            0.9371362595      -29.5591619065       -1.4718596690  MEMB      235             0.0000000000
     26613       235  POPE      H16S            2.5084696500      -29.1426915754       -2.1037788951  MEMB      235             0.0000000000
     26614       235  POPE      C217            2.0154241833      -31.2964816668       -1.7353599888  MEMB      235             0.0000000000
     26615       235  POPE      H17R            2.1783801464      -31.4343760317       -0.6450618147  MEMB      235             0.0000000000
     26616       235  POPE      H17S            2.8647226651      -31.5156140497       -2.4172650299  MEMB      235             0.0000000000
     26617       235  POPE      C218            1.0381200463      -32.3946600318       -2.0272707684  MEMB      235             0.0000000000
     26618       235  POPE      H18R            0.9400693747      -32.4714282640       -3.1312693836  MEMB      235             0.0000000000
     26619       235  POPE      H18S            0.1109809327      -32.3105835726       -1.4209164070  MEMB      235             0.0000000000
     26620       235  POPE      H18T            1.5709794164      -33.2880249479       -1.6370390973  MEMB      235             0.0000000000
     26621       235  POPE      C33             5.6576831872      -32.0716359836      -12.5328711806  MEMB      235             0.0000000000
     26622       235  POPE      H3X             5.6196000961      -32.7613118036      -13.4030540334  MEMB      235             0.0000000000
     26623       235  POPE      H3Y             5.3541390693      -32.6351314191      -11.6247661703  MEMB      235             0.0000000000
     26624       235  POPE      C34             7.1564191998      -31.6496038336      -12.2581912335  MEMB      235             0.0000000000
     26625       235  POPE      H4X             7.3603810765      -31.0024315161      -13.1379008821  MEMB      235             0.0000000000
     26626       235  POPE      H4Y             7.8050276485      -32.5515877107      -12.2654313183  MEMB      235             0.0000000000
     26627       235  POPE      C35             7.4274921340      -30.9896349247      -10.9367603736  MEMB      235             0.0000000000
     26628       235  POPE      H5X             6.8403745908      -30.0476510295      -10.9845113212  MEMB      235             0.0000000000
     26629       235  POPE      H5Y             8.4728683814      -30.6289429301      -11.0435807857  MEMB      235             0.0000000000
     26630       235  POPE      C36             7.2395552995      -31.7844055980       -9.6050629094  MEMB      235             0.0000000000
     26631       235  POPE      H6X             8.2220543877      -32.0350943153       -9.1510013011  MEMB      235             0.0000000000
     26632       235  POPE      H6Y             6.7960049889      -32.7542897909       -9.9163635255  MEMB      235             0.0000000000
     26633       235  POPE      C37             6.3662026817      -30.9754660720       -8.6326005317  MEMB      235             0.0000000000
     26634       235  POPE      H7X             5.8854580511      -31.5473797328       -7.8103353848  MEMB      235             0.0000000000
     26635       235  POPE      H7Y             5.5025195309      -30.6798517097       -9.2658340566  MEMB      235             0.0000000000
     26636       235  POPE      C38             7.0742954995      -29.7000982072       -8.1116303446  MEMB      235             0.0000000000
     26637       235  POPE      H8X             7.4072878933      -28.9675996777       -8.8777130856  MEMB      235             0.0000000000
     26638       235  POPE      H8Y             8.0099387816      -30.0310767125       -7.6122846692  MEMB      235             0.0000000000
     26639       235  POPE      C39             6.3976722520      -28.9243187932       -6.9910165120  MEMB      235             0.0000000000
     26640       235  POPE      H9X             6.2120548294      -29.5076955787       -6.0639041384  MEMB      235             0.0000000000
     26641       235  POPE      H9Y             5.3757995131      -28.7169204632       -7.3745314136  MEMB      235             0.0000000000
     26642       235  POPE      C310            7.1863643964      -27.6517739969       -6.7638799391  MEMB      235             0.0000000000
     26643       235  POPE      H10X            7.4067834480      -27.0527501557       -7.6732244463  MEMB      235             0.0000000000
     26644       235  POPE      H10Y            8.1349153780      -27.8669377910       -6.2269655861  MEMB      235             0.0000000000
     26645       235  POPE      C311            6.3430056291      -26.7629880834       -5.7969406803  MEMB      235             0.0000000000
     26646       235  POPE      H11X            5.2471567021      -26.7813836507       -5.9788672023  MEMB      235             0.0000000000
     26647       235  POPE      H11Y            6.7184642952      -25.7426839736       -6.0257007621  MEMB      235             0.0000000000
     26648       235  POPE      C312            6.3239089046      -27.1693708177       -4.3165039802  MEMB      235             0.0000000000
     26649       235  POPE      H12X            7.2901228206      -27.0905001099       -3.7737978187  MEMB      235             0.0000000000
     26650       235  POPE      H12Y            5.8545459327      -28.1287986696       -4.0106975087  MEMB      235             0.0000000000
     26651       235  POPE      C313            5.4618396524      -26.0589173393       -3.7037548594  MEMB      235             0.0000000000
     26652       235  POPE      H13X            4.4423616219      -26.0819628750       -4.1447240088  MEMB      235             0.0000000000
     26653       235  POPE      H13Y            5.9288722896      -25.0600956813       -3.8399785032  MEMB      235             0.0000000000
     26654       235  POPE      C314            5.4886103122      -26.4210007290       -2.1544112935  MEMB      235             0.0000000000
     26655       235  POPE      H14X            6.4946159364      -26.8293500132       -1.9187725646  MEMB      235             0.0000000000
     26656       235  POPE      H14Y            4.8485600300      -27.2558371396       -1.7970532997  MEMB      235             0.0000000000
     26657       235  POPE      C315            5.1919199846      -25.2222983827       -1.2395302724  MEMB      235             0.0000000000
     26658       235  POPE      H15X            5.7607181089      -24.3008759481       -1.4880670370  MEMB      235             0.0000000000
     26659       235  POPE      H15Y            5.3308633636      -25.5454898581       -0.1856984692  MEMB      235             0.0000000000
     26660       235  POPE      C316            3.7365181202      -24.7013396344       -1.2821019258  MEMB      235             0.0000000000
     26661       235  POPE      H16X            2.9803486223      -25.2556493367       -0.6860571294  MEMB      235             0.0000000000
     26662       235  POPE      H16Y            3.2561466870      -24.7151722030       -2.2837853599  MEMB      235             0.0000000000
     26663       235  POPE      H16Z            3.8247164117      -23.6886206908       -0.8338351245  MEMB      235             0.0000000000
     26664       236  POPE      N               2.2538299860       36.0909044391      -21.4247459357  MEMB      236             0.0000000000
     26665       236  POPE      HN1             3.2522316129       36.1681037515      -21.7055207821  MEMB      236             0.0000000000
     26666       236  POPE      HN2             1.7550380097       35.6064998240      -22.1981532907  MEMB      236             0.0000000000
     26667       236  POPE      HN3             1.7446116468       36.9973550483      -21.4501193784  MEMB      236             0.0000000000
     26668       236  POPE      C12             2.0291561337       35.4217986830      -20.1019384259  MEMB      236             0.0000000000
     26669       236  POPE      H12A            2.2395959049       34.3407402860      -20.2480500786  MEMB      236             0.0000000000
     26670       236  POPE      H12B            0.9409625813       35.5555087310      -19.9222789975  MEMB      236             0.0000000000
     26671       236  POPE      C11             2.8239203464       36.1504890547      -19.0017708798  MEMB      236             0.0000000000
     26672       236  POPE      H11A            2.7040988901       35.6520691374      -18.0161029013  MEMB      236             0.0000000000
     26673       236  POPE      H11B            2.4665283432       37.1920531832      -18.8543389060  MEMB      236             0.0000000000
     26674       236  POPE      P               5.2670848590       36.5261799944      -18.2718689304  MEMB      236             0.0000000000
     26675       236  POPE      O13             4.6876177119       37.4020439933      -17.2310015981  MEMB      236             0.0000000000
     26676       236  POPE      O14             6.4263159647       36.9998962531      -18.9578415549  MEMB      236             0.0000000000
     26677       236  POPE      O11             5.6337395041       35.1208860172      -17.6995694441  MEMB      236             0.0000000000
     26678       236  POPE      O12             4.1876394654       36.2087247491      -19.3112632290  MEMB      236             0.0000000000
     26679       236  POPE      C1              5.9415828349       34.1762944679      -18.7443051032  MEMB      236             0.0000000000
     26680       236  POPE      HA              6.6292138636       34.5440552933      -19.5356561287  MEMB      236             0.0000000000
     26681       236  POPE      HB              4.9699713947       33.9870358721      -19.2487587715  MEMB      236             0.0000000000
     26682       236  POPE      C2              6.4212974924       32.8093541509      -18.1734770660  MEMB      236             0.0000000000
     26683       236  POPE      HS              6.4129409682       32.0478887019      -18.9824402641  MEMB      236             0.0000000000
     26684       236  POPE      O21             5.6415644979       32.5024372024      -17.0309932677  MEMB      236             0.0000000000
     26685       236  POPE      C21             4.5112762160       31.8887970672      -17.2403938370  MEMB      236             0.0000000000
     26686       236  POPE      O22             3.8891188365       31.6689633514      -18.2745155113  MEMB      236             0.0000000000
     26687       236  POPE      C22             3.9594695182       31.4954074018      -15.8429699598  MEMB      236             0.0000000000
     26688       236  POPE      H2R             4.6220984730       30.6769382161      -15.4889188908  MEMB      236             0.0000000000
     26689       236  POPE      H2S             2.8894473623       31.2064152285      -15.9194980307  MEMB      236             0.0000000000
     26690       236  POPE      C3              7.8940823034       32.8712754796      -17.6987546752  MEMB      236             0.0000000000
     26691       236  POPE      HX              8.5390031016       32.8660499035      -18.6033930766  MEMB      236             0.0000000000
     26692       236  POPE      HY              8.2510121672       31.9814882632      -17.1373271094  MEMB      236             0.0000000000
     26693       236  POPE      O31             8.1895474412       34.0891520265      -17.0601260603  MEMB      236             0.0000000000
     26694       236  POPE      C31             8.2172555347       34.1347130813      -15.7218410273  MEMB      236             0.0000000000
     26695       236  POPE      O32             7.9685837977       33.1729850592      -15.0288704959  MEMB      236             0.0000000000
     26696       236  POPE      C32             8.5617027919       35.5768002853      -15.3105251871  MEMB      236             0.0000000000
     26697       236  POPE      H2X             8.8739049347       36.2877615137      -16.1051225685  MEMB      236             0.0000000000
     26698       236  POPE      H2Y             9.4788930629       35.3838809213      -14.7139811669  MEMB      236             0.0000000000
     26699       236  POPE      C23             4.0389198528       32.6152561356      -14.7924384219  MEMB      236             0.0000000000
     26700       236  POPE      H3R             5.0729034340       32.9955767059      -14.6490672289  MEMB      236             0.0000000000
     26701       236  POPE      H3S             3.8947600158       32.1237770965      -13.8065441405  MEMB      236             0.0000000000
     26702       236  POPE      C24             3.1854458916       33.8626725679      -15.1364154951  MEMB      236             0.0000000000
     26703       236  POPE      H4R             2.1006113974       33.6268986935      -15.1796096744  MEMB      236             0.0000000000
     26704       236  POPE      H4S             3.5605179054       34.2591500845      -16.1041177641  MEMB      236             0.0000000000
     26705       236  POPE      C25             3.5419352665       35.0429722314      -14.2367851081  MEMB      236             0.0000000000
     26706       236  POPE      H5R             3.0836268510       35.9256214943      -14.7319662906  MEMB      236             0.0000000000
     26707       236  POPE      H5S             4.6406445366       35.1699942816      -14.1317878220  MEMB      236             0.0000000000
     26708       236  POPE      C26             3.0444557970       34.8476624701      -12.7312793105  MEMB      236             0.0000000000
     26709       236  POPE      H6R             3.5961774986       33.9899174349      -12.2906003931  MEMB      236             0.0000000000
     26710       236  POPE      H6S             1.9734023564       34.6020270265      -12.8950739640  MEMB      236             0.0000000000
     26711       236  POPE      C27             2.9516845796       36.0832811519      -11.7914536485  MEMB      236             0.0000000000
     26712       236  POPE      H7R             2.7830300064       35.7940937127      -10.7320921456  MEMB      236             0.0000000000
     26713       236  POPE      H7S             2.3087371589       36.8614335633      -12.2555857459  MEMB      236             0.0000000000
     26714       236  POPE      C28             4.3455903420       36.6258376553      -11.7046393782  MEMB      236             0.0000000000
     26715       236  POPE      H8R             4.8083073016       36.8880989054      -12.6800535126  MEMB      236             0.0000000000
     26716       236  POPE      H8S             4.9537698042       35.7921232818      -11.2931068673  MEMB      236             0.0000000000
     26717       236  POPE      C29             4.3530909763       37.8610625146      -10.7843268763  MEMB      236             0.0000000000
     26718       236  POPE      H91             4.1051050404       38.7645245216      -11.3607459125  MEMB      236             0.0000000000
     26719       236  POPE      C210            4.7504920295       37.9140521274       -9.4834692846  MEMB      236             0.0000000000
     26720       236  POPE      H101            4.6207567704       38.8768406382       -8.9675160722  MEMB      236             0.0000000000
     26721       236  POPE      C211            5.2504512519       36.7833825270       -8.6577582769  MEMB      236             0.0000000000
     26722       236  POPE      H11R            6.3258770116       36.9472914130       -8.4321165823  MEMB      236             0.0000000000
     26723       236  POPE      H11S            5.2617717905       35.7828662153       -9.1406250193  MEMB      236             0.0000000000
     26724       236  POPE      C212            4.5906635794       36.6381418467       -7.2538250408  MEMB      236             0.0000000000
     26725       236  POPE      H12R            4.9610914419       37.2395401830       -6.3962567141  MEMB      236             0.0000000000
     26726       236  POPE      H12S            4.9272521305       35.5919985885       -7.0906894566  MEMB      236             0.0000000000
     26727       236  POPE      C213            3.1077134771       36.8772699083       -7.2302594836  MEMB      236             0.0000000000
     26728       236  POPE      H13R            2.6618166094       35.9799695328       -7.7102072168  MEMB      236             0.0000000000
     26729       236  POPE      H13S            2.7727928445       37.8133349156       -7.7261741811  MEMB      236             0.0000000000
     26730       236  POPE      C214            2.3276505400       36.7760744804       -5.8903293098  MEMB      236             0.0000000000
     26731       236  POPE      H14R            2.3894491767       35.7625694959       -5.4394304919  MEMB      236             0.0000000000
     26732       236  POPE      H14S            1.2812413069       36.9829258995       -6.2010713070  MEMB      236             0.0000000000
     26733       236  POPE      C215            2.5367307457       37.8164982023       -4.7393937487  MEMB      236             0.0000000000
     26734       236  POPE      H15R            2.1311216360       38.8113595894       -5.0223302261  MEMB      236             0.0000000000
     26735       236  POPE      H15S            3.6287349443       38.0084201099       -4.6685858802  MEMB      236             0.0000000000
     26736       236  POPE      C216            1.8861591198       37.2268491257       -3.4289481390  MEMB      236             0.0000000000
     26737       236  POPE      H16R            2.0821859398       36.1524161658       -3.2252610312  MEMB      236             0.0000000000
     26738       236  POPE      H16S            0.7800089096       37.2995117586       -3.5029280514  MEMB      236             0.0000000000
     26739       236  POPE      C217            2.2274241575       37.9194026765       -2.1200079795  MEMB      236             0.0000000000
     26740       236  POPE      H17R            1.5556217805       37.8027987907       -1.2428494627  MEMB      236             0.0000000000
     26741       236  POPE      H17S            2.1368923825       39.0109057372       -2.3064104902  MEMB      236             0.0000000000
     26742       236  POPE      C218            3.6628501459       37.5514584576       -1.6026332648  MEMB      236             0.0000000000
     26743       236  POPE      H18R            4.5163082512       38.0462769692       -2.1135984214  MEMB      236             0.0000000000
     26744       236  POPE      H18S            3.7745430925       36.4539691986       -1.4708647995  MEMB      236             0.0000000000
     26745       236  POPE      H18T            3.6540186532       37.9938532183       -0.5835512957  MEMB      236             0.0000000000
     26746       236  POPE      C33             7.5370142763       36.0572907132      -14.2895078303  MEMB      236             0.0000000000
     26747       236  POPE      H3X             7.4617811793       35.2991564750      -13.4808710667  MEMB      236             0.0000000000
     26748       236  POPE      H3Y             6.6087369040       36.0473756913      -14.8998554086  MEMB      236             0.0000000000
     26749       236  POPE      C34             7.6954545386       37.4196006316      -13.8026919902  MEMB      236             0.0000000000
     26750       236  POPE      H4X             6.7614682788       37.9593705884      -13.5369115989  MEMB      236             0.0000000000
     26751       236  POPE      H4Y             7.9659339950       37.9374740222      -14.7476626276  MEMB      236             0.0000000000
     26752       236  POPE      C35             8.7793825986       37.7526551089      -12.6979711146  MEMB      236             0.0000000000
     26753       236  POPE      H5X             9.1548872080       38.7278390433      -13.0752425915  MEMB      236             0.0000000000
     26754       236  POPE      H5Y             9.6161413224       37.0218358144      -12.6902438577  MEMB      236             0.0000000000
     26755       236  POPE      C36             8.2144303135       37.9073549960      -11.3058418854  MEMB      236             0.0000000000
     26756       236  POPE      H6X             7.7510943462       37.0288420644      -10.8079908180  MEMB      236             0.0000000000
     26757       236  POPE      H6Y             7.3935045258       38.6359565962      -11.4777184726  MEMB      236             0.0000000000
     26758       236  POPE      C37             9.2682183756       38.5415336338      -10.4166501004  MEMB      236             0.0000000000
     26759       236  POPE      H7X             9.7232840517       39.4463049595      -10.8734050365  MEMB      236             0.0000000000
     26760       236  POPE      H7Y             9.9972191990       37.7033467530      -10.3987319618  MEMB      236             0.0000000000
     26761       236  POPE      C38             8.6779652995       38.9227445139       -9.1169562138  MEMB      236             0.0000000000
     26762       236  POPE      H8X             8.3523152234       37.9470431533       -8.6970992354  MEMB      236             0.0000000000
     26763       236  POPE      H8Y             7.7200461230       39.4584044604       -9.2895263421  MEMB      236             0.0000000000
     26764       236  POPE      C39             9.6480097751       39.6401333252       -8.0636499461  MEMB      236             0.0000000000
     26765       236  POPE      H9X             9.8707475456       40.6613391448       -8.4402760735  MEMB      236             0.0000000000
     26766       236  POPE      H9Y            10.6620528308       39.2716419232       -7.7985995809  MEMB      236             0.0000000000
     26767       236  POPE      C310            8.9828769586       39.7922831382       -6.6693357090  MEMB      236             0.0000000000
     26768       236  POPE      H10X            8.0666073095       40.3802657751       -6.8908015072  MEMB      236             0.0000000000
     26769       236  POPE      H10Y            9.5129856817       40.4777619124       -5.9740479320  MEMB      236             0.0000000000
     26770       236  POPE      C311            9.0679065206       38.4919725765       -5.9063499380  MEMB      236             0.0000000000
     26771       236  POPE      H11X           10.1608800771       38.3405431451       -5.7767392124  MEMB      236             0.0000000000
     26772       236  POPE      H11Y            8.5103543165       37.7087584030       -6.4631558576  MEMB      236             0.0000000000
     26773       236  POPE      C312            8.3239314405       38.5560414504       -4.6235347926  MEMB      236             0.0000000000
     26774       236  POPE      H12X            7.2598938599       38.8610330434       -4.7190608647  MEMB      236             0.0000000000
     26775       236  POPE      H12Y            8.8298361509       39.3537678132       -4.0387155521  MEMB      236             0.0000000000
     26776       236  POPE      C313            8.2744166564       37.1969914569       -3.8570803218  MEMB      236             0.0000000000
     26777       236  POPE      H13X            9.3688878937       37.0110811340       -3.8135981516  MEMB      236             0.0000000000
     26778       236  POPE      H13Y            7.7263461233       36.4411849296       -4.4593227430  MEMB      236             0.0000000000
     26779       236  POPE      C314            7.6248582866       37.1626608064       -2.4842828919  MEMB      236             0.0000000000
     26780       236  POPE      H14X            7.5979521573       36.0698659940       -2.2857971152  MEMB      236             0.0000000000
     26781       236  POPE      H14Y            6.5912636453       37.5680698324       -2.5248609406  MEMB      236             0.0000000000
     26782       236  POPE      C315            8.3911686541       37.9677621746       -1.3362931171  MEMB      236             0.0000000000
     26783       236  POPE      H15X            8.9411392899       38.8933896462       -1.6102766239  MEMB      236             0.0000000000
     26784       236  POPE      H15Y            9.1480295508       37.2779840687       -0.9053775171  MEMB      236             0.0000000000
     26785       236  POPE      C316            7.4023461023       38.3298798621       -0.2233810625  MEMB      236             0.0000000000
     26786       236  POPE      H16X            7.7927688674       38.7013523456        0.7481636369  MEMB      236             0.0000000000
     26787       236  POPE      H16Y            6.8649059593       37.4171488219        0.1118818409  MEMB      236             0.0000000000
     26788       236  POPE      H16Z            6.6521764830       39.0562066238       -0.6028754564  MEMB      236             0.0000000000
     26789       237  POPE      N             -23.8196405349      -18.5965454161      -17.4047882867  MEMB      237             0.0000000000
     26790       237  POPE      HN1           -24.7102285136      -19.0876294671      -17.6222493714  MEMB      237             0.0000000000
     26791       237  POPE      HN2           -23.5107333555      -19.0391793304      -16.5158272749  MEMB      237             0.0000000000
     26792       237  POPE      HN3           -24.0472827517      -17.5840294734      -17.3370352349  MEMB      237             0.0000000000
     26793       237  POPE      C12           -22.7631104909      -18.8432367222      -18.4902842569  MEMB      237             0.0000000000
     26794       237  POPE      H12A          -23.3625156493      -19.2337297792      -19.3403134034  MEMB      237             0.0000000000
     26795       237  POPE      H12B          -22.1920654413      -19.7487863060      -18.1932851712  MEMB      237             0.0000000000
     26796       237  POPE      C11           -22.1186671095      -17.5612741073      -18.9224884205  MEMB      237             0.0000000000
     26797       237  POPE      H11A          -21.1262064485      -17.7324067708      -19.3915903137  MEMB      237             0.0000000000
     26798       237  POPE      H11B          -21.8088362888      -16.8886630079      -18.0942854316  MEMB      237             0.0000000000
     26799       237  POPE      P             -23.8273266363      -15.5505940172      -19.4677296732  MEMB      237             0.0000000000
     26800       237  POPE      O13           -25.1991994681      -15.8315880156      -19.9622687410  MEMB      237             0.0000000000
     26801       237  POPE      O14           -23.1555133938      -14.3793934478      -19.9792189525  MEMB      237             0.0000000000
     26802       237  POPE      O11           -23.8685129961      -15.5594961188      -17.8841299473  MEMB      237             0.0000000000
     26803       237  POPE      O12           -22.9024181977      -16.8355953566      -19.8890917229  MEMB      237             0.0000000000
     26804       237  POPE      C1            -23.9175715197      -14.3755507471      -17.0820275742  MEMB      237             0.0000000000
     26805       237  POPE      HA            -24.2990223384      -13.5774510084      -17.7542277998  MEMB      237             0.0000000000
     26806       237  POPE      HB            -22.8536029488      -14.2086604536      -16.8091916722  MEMB      237             0.0000000000
     26807       237  POPE      C2            -24.7978006400      -14.5882468191      -15.7893771799  MEMB      237             0.0000000000
     26808       237  POPE      HS            -24.7296107278      -13.6758044922      -15.1592021580  MEMB      237             0.0000000000
     26809       237  POPE      O21           -24.2466734317      -15.6432618337      -15.0883636762  MEMB      237             0.0000000000
     26810       237  POPE      C21           -24.2348864213      -15.7181747389      -13.7433874237  MEMB      237             0.0000000000
     26811       237  POPE      O22           -24.6343019110      -14.8416070451      -12.9394272541  MEMB      237             0.0000000000
     26812       237  POPE      C22           -23.6076934507      -17.0519684628      -13.4096241748  MEMB      237             0.0000000000
     26813       237  POPE      H2R           -22.5645931436      -17.2463617238      -13.7389784400  MEMB      237             0.0000000000
     26814       237  POPE      H2S           -24.2462156435      -17.8959773995      -13.7476467580  MEMB      237             0.0000000000
     26815       237  POPE      C3            -26.3124162550      -14.8570488863      -16.1958674804  MEMB      237             0.0000000000
     26816       237  POPE      HX            -26.3445888170      -15.7965658586      -16.7879772075  MEMB      237             0.0000000000
     26817       237  POPE      HY            -26.6275409613      -14.0201701815      -16.8551484821  MEMB      237             0.0000000000
     26818       237  POPE      O31           -27.0990070855      -15.0476390204      -14.9614270599  MEMB      237             0.0000000000
     26819       237  POPE      C31           -27.2456558343      -16.3362885615      -14.5845463299  MEMB      237             0.0000000000
     26820       237  POPE      O32           -26.9000488538      -17.2911757390      -15.2590104382  MEMB      237             0.0000000000
     26821       237  POPE      C32           -27.7726452733      -16.3437771552      -13.1702849702  MEMB      237             0.0000000000
     26822       237  POPE      H2X           -27.6505841282      -15.3634956621      -12.6618854061  MEMB      237             0.0000000000
     26823       237  POPE      H2Y           -27.1648519091      -16.9814047521      -12.4932775761  MEMB      237             0.0000000000
     26824       237  POPE      C23           -23.7066589638      -17.2327555489      -11.8744202544  MEMB      237             0.0000000000
     26825       237  POPE      H3R           -24.6379471344      -17.0066883524      -11.3123557226  MEMB      237             0.0000000000
     26826       237  POPE      H3S           -22.9090447638      -16.6185938234      -11.4043800074  MEMB      237             0.0000000000
     26827       237  POPE      C24           -23.3443745127      -18.7321932139      -11.5570954679  MEMB      237             0.0000000000
     26828       237  POPE      H4R           -23.1518514261      -19.2992935748      -12.4928586894  MEMB      237             0.0000000000
     26829       237  POPE      H4S           -24.1516818739      -19.1905533376      -10.9467826060  MEMB      237             0.0000000000
     26830       237  POPE      C25           -22.1251966413      -18.9196435443      -10.6211587702  MEMB      237             0.0000000000
     26831       237  POPE      H5R           -21.1981827190      -18.5830248163      -11.1326800927  MEMB      237             0.0000000000
     26832       237  POPE      H5S           -21.9655658222      -20.0028888350      -10.4329608168  MEMB      237             0.0000000000
     26833       237  POPE      C26           -22.1764323416      -18.2531993103       -9.2504441766  MEMB      237             0.0000000000
     26834       237  POPE      H6R           -22.5633472556      -17.2373373105       -9.4798824115  MEMB      237             0.0000000000
     26835       237  POPE      H6S           -21.0987610251      -18.2203174551       -8.9823683859  MEMB      237             0.0000000000
     26836       237  POPE      C27           -23.1601257466      -18.9669698975       -8.2400503367  MEMB      237             0.0000000000
     26837       237  POPE      H7R           -22.8211651767      -20.0249676937       -8.2482476534  MEMB      237             0.0000000000
     26838       237  POPE      H7S           -24.1326283586      -18.9018790499       -8.7732696487  MEMB      237             0.0000000000
     26839       237  POPE      C28           -23.1981229291      -18.3494542060       -6.8377297824  MEMB      237             0.0000000000
     26840       237  POPE      H8R           -23.9485491392      -18.9679728540       -6.3004996593  MEMB      237             0.0000000000
     26841       237  POPE      H8S           -23.7954924285      -17.4166340288       -6.7521895145  MEMB      237             0.0000000000
     26842       237  POPE      C29           -21.8051468312      -18.1599064628       -6.2171520277  MEMB      237             0.0000000000
     26843       237  POPE      H91           -21.1805618421      -17.3412575958       -6.6040715363  MEMB      237             0.0000000000
     26844       237  POPE      C210          -21.2239556856      -19.0257411858       -5.4152124071  MEMB      237             0.0000000000
     26845       237  POPE      H101          -20.2448782110      -18.8654512200       -4.9401183224  MEMB      237             0.0000000000
     26846       237  POPE      C211          -21.7699985204      -20.3174986587       -4.9184395397  MEMB      237             0.0000000000
     26847       237  POPE      H11R          -20.9474996061      -21.0643682876       -4.9170402379  MEMB      237             0.0000000000
     26848       237  POPE      H11S          -22.4922217259      -20.7951241702       -5.6145637176  MEMB      237             0.0000000000
     26849       237  POPE      C212          -22.4079140603      -20.1153317361       -3.5664975548  MEMB      237             0.0000000000
     26850       237  POPE      H12R          -23.0306042615      -19.1998679237       -3.6587160631  MEMB      237             0.0000000000
     26851       237  POPE      H12S          -21.7300054494      -20.0540175880       -2.6884314567  MEMB      237             0.0000000000
     26852       237  POPE      C213          -23.4837628858      -21.1485218360       -3.1604576451  MEMB      237             0.0000000000
     26853       237  POPE      H13R          -24.1323112777      -20.5327465174       -2.5012712609  MEMB      237             0.0000000000
     26854       237  POPE      H13S          -22.9791664364      -21.9487715091       -2.5779591511  MEMB      237             0.0000000000
     26855       237  POPE      C214          -24.4058434879      -21.6751226889       -4.2100629913  MEMB      237             0.0000000000
     26856       237  POPE      H14R          -23.9447127040      -22.5047586014       -4.7874566123  MEMB      237             0.0000000000
     26857       237  POPE      H14S          -24.6590789162      -20.8977641658       -4.9623305321  MEMB      237             0.0000000000
     26858       237  POPE      C215          -25.6540554034      -22.3472488269       -3.6895425869  MEMB      237             0.0000000000
     26859       237  POPE      H15R          -25.2820990121      -23.0951616498       -2.9570157080  MEMB      237             0.0000000000
     26860       237  POPE      H15S          -26.1379520833      -22.8775111786       -4.5374738027  MEMB      237             0.0000000000
     26861       237  POPE      C216          -26.7103346947      -21.2849395716       -3.1138357107  MEMB      237             0.0000000000
     26862       237  POPE      H16R          -26.6750886302      -20.3515619303       -3.7154053863  MEMB      237             0.0000000000
     26863       237  POPE      H16S          -26.4357964931      -21.1166680269       -2.0505232839  MEMB      237             0.0000000000
     26864       237  POPE      C217          -28.1505466445      -21.7784700443       -3.3694784451  MEMB      237             0.0000000000
     26865       237  POPE      H17R          -28.2002906205      -22.8262729170       -3.0034792947  MEMB      237             0.0000000000
     26866       237  POPE      H17S          -28.3680086190      -21.8074805562       -4.4586024597  MEMB      237             0.0000000000
     26867       237  POPE      C218          -29.3006573635      -20.9274648239       -2.7086043514  MEMB      237             0.0000000000
     26868       237  POPE      H18R          -28.8035877567      -20.5922652592       -1.7732520111  MEMB      237             0.0000000000
     26869       237  POPE      H18S          -30.0395917017      -21.6926376678       -2.3879705443  MEMB      237             0.0000000000
     26870       237  POPE      H18T          -29.7739390830      -20.1218048789       -3.3096345603  MEMB      237             0.0000000000
     26871       237  POPE      C33           -29.2177268376      -16.8067782253      -13.1813637740  MEMB      237             0.0000000000
     26872       237  POPE      H3X           -29.2975898005      -17.9076683486      -13.3077911146  MEMB      237             0.0000000000
     26873       237  POPE      H3Y           -29.7565479652      -16.2817088485      -13.9988570216  MEMB      237             0.0000000000
     26874       237  POPE      C34           -30.0277367743      -16.5571735111      -11.9027143289  MEMB      237             0.0000000000
     26875       237  POPE      H4X           -31.0729982917      -16.8889365831      -12.0807102664  MEMB      237             0.0000000000
     26876       237  POPE      H4Y           -30.0390637775      -15.4493363815      -11.8197103531  MEMB      237             0.0000000000
     26877       237  POPE      C35           -29.3607250058      -17.2673743406      -10.6759758542  MEMB      237             0.0000000000
     26878       237  POPE      H5X           -28.3029576232      -16.9441404858      -10.5712427970  MEMB      237             0.0000000000
     26879       237  POPE      H5Y           -29.4186032869      -18.3634691405      -10.8478695601  MEMB      237             0.0000000000
     26880       237  POPE      C36           -29.8498891355      -16.8975550038       -9.2858246919  MEMB      237             0.0000000000
     26881       237  POPE      H6X           -30.9281174170      -17.1319167407       -9.1561331013  MEMB      237             0.0000000000
     26882       237  POPE      H6Y           -29.6815255377      -15.8099703345       -9.1337243815  MEMB      237             0.0000000000
     26883       237  POPE      C37           -29.1300764935      -17.4853538826       -8.0160868179  MEMB      237             0.0000000000
     26884       237  POPE      H7X           -28.1653098341      -17.9544552682       -8.3050340660  MEMB      237             0.0000000000
     26885       237  POPE      H7Y           -29.8184496904      -18.2836989028       -7.6652194004  MEMB      237             0.0000000000
     26886       237  POPE      C38           -28.9926517028      -16.3721140315       -6.9877114842  MEMB      237             0.0000000000
     26887       237  POPE      H8X           -29.9455909283      -15.9014289692       -6.6641636763  MEMB      237             0.0000000000
     26888       237  POPE      H8Y           -28.3079723534      -15.6324919197       -7.4551460349  MEMB      237             0.0000000000
     26889       237  POPE      C39           -28.1954742341      -16.9407734192       -5.6835409675  MEMB      237             0.0000000000
     26890       237  POPE      H9X           -27.2368970651      -17.3834245139       -6.0292439095  MEMB      237             0.0000000000
     26891       237  POPE      H9Y           -28.8048843389      -17.7915907739       -5.3106465738  MEMB      237             0.0000000000
     26892       237  POPE      C310          -27.9343008605      -15.9783605476       -4.5191996263  MEMB      237             0.0000000000
     26893       237  POPE      H10X          -28.9708051145      -15.6212999383       -4.3389568714  MEMB      237             0.0000000000
     26894       237  POPE      H10Y          -27.4255330678      -15.1166374977       -5.0018076356  MEMB      237             0.0000000000
     26895       237  POPE      C311          -27.0889716110      -16.5143099651       -3.3454790322  MEMB      237             0.0000000000
     26896       237  POPE      H11X          -27.3598131135      -17.5505546808       -3.0502439463  MEMB      237             0.0000000000
     26897       237  POPE      H11Y          -27.2714802939      -15.7836286620       -2.5287068431  MEMB      237             0.0000000000
     26898       237  POPE      C312          -25.5492897686      -16.4168346154       -3.6166406975  MEMB      237             0.0000000000
     26899       237  POPE      H12X          -25.2812706408      -15.3465855831       -3.7472328222  MEMB      237             0.0000000000
     26900       237  POPE      H12Y          -25.2635668977      -16.8668822352       -4.5913925848  MEMB      237             0.0000000000
     26901       237  POPE      C313          -24.7462057838      -17.1839591208       -2.5870903676  MEMB      237             0.0000000000
     26902       237  POPE      H13X          -23.6514097990      -17.1055450630       -2.7591206515  MEMB      237             0.0000000000
     26903       237  POPE      H13Y          -24.9780344900      -18.2582830684       -2.7495847228  MEMB      237             0.0000000000
     26904       237  POPE      C314          -25.1099409241      -16.8846103466       -1.0340883928  MEMB      237             0.0000000000
     26905       237  POPE      H14X          -26.2009187323      -16.9933124432       -0.8544404699  MEMB      237             0.0000000000
     26906       237  POPE      H14Y          -24.8569872025      -15.8298863858       -0.7934798482  MEMB      237             0.0000000000
     26907       237  POPE      C315          -24.3728331607      -17.8325605201       -0.2420109454  MEMB      237             0.0000000000
     26908       237  POPE      H15X          -23.3136771510      -17.8401567069       -0.5773470063  MEMB      237             0.0000000000
     26909       237  POPE      H15Y          -24.6105801307      -18.9032414991       -0.4193230598  MEMB      237             0.0000000000
     26910       237  POPE      C316          -24.3534848821      -17.4857086810        1.2210886641  MEMB      237             0.0000000000
     26911       237  POPE      H16X          -24.0706553333      -16.4183177025        1.3435829604  MEMB      237             0.0000000000
     26912       237  POPE      H16Y          -23.5500566855      -18.0553149836        1.7352610954  MEMB      237             0.0000000000
     26913       237  POPE      H16Z          -25.3741488834      -17.6487950950        1.6284810785  MEMB      237             0.0000000000
     26914       238  POPC      N             -11.9089336942      -25.7256023669      -17.7222140671  MEMB      238             0.0000000000
     26915       238  POPC      C12           -13.1787953248      -24.8497834784      -17.3961404158  MEMB      238             0.0000000000
     26916       238  POPC      H12A          -12.7868443700      -23.8576650666      -17.5648876259  MEMB      238             0.0000000000
     26917       238  POPC      H12B          -13.4481631326      -25.0562050745      -16.3708449001  MEMB      238             0.0000000000
     26918       238  POPC      C13           -11.1944361927      -25.4096626523      -19.0194530592  MEMB      238             0.0000000000
     26919       238  POPC      H13A          -10.5912738357      -24.5179350144      -18.9333311987  MEMB      238             0.0000000000
     26920       238  POPC      H13B          -10.5475714228      -26.2467383460      -19.2368701660  MEMB      238             0.0000000000
     26921       238  POPC      H13C          -11.9254895483      -25.3471591567      -19.8119518103  MEMB      238             0.0000000000
     26922       238  POPC      C14           -11.0212161000      -25.6283101426      -16.5442553469  MEMB      238             0.0000000000
     26923       238  POPC      H14A          -11.5434616772      -26.0117005129      -15.6801539027  MEMB      238             0.0000000000
     26924       238  POPC      H14B          -10.1082739095      -26.1731303259      -16.7342751671  MEMB      238             0.0000000000
     26925       238  POPC      H14C          -10.8180930529      -24.5825947816      -16.3664341810  MEMB      238             0.0000000000
     26926       238  POPC      C15           -12.3277750889      -27.1733374082      -17.6470795359  MEMB      238             0.0000000000
     26927       238  POPC      H15A          -12.8664619560      -27.6563709571      -18.4488867786  MEMB      238             0.0000000000
     26928       238  POPC      H15B          -12.8686370289      -27.3908558568      -16.7379293435  MEMB      238             0.0000000000
     26929       238  POPC      H15C          -11.3967299344      -27.7165748491      -17.5803863823  MEMB      238             0.0000000000
     26930       238  POPC      C11           -14.4775344088      -25.0867836923      -18.2447021885  MEMB      238             0.0000000000
     26931       238  POPC      H11A          -15.2223142003      -24.3367720694      -17.9024935774  MEMB      238             0.0000000000
     26932       238  POPC      H11B          -14.8489832559      -26.0986655042      -17.9755518926  MEMB      238             0.0000000000
     26933       238  POPC      P             -14.3991567263      -23.8555905280      -20.5630862362  MEMB      238             0.0000000000
     26934       238  POPC      O13           -15.8041952558      -23.4777069166      -20.8895824999  MEMB      238             0.0000000000
     26935       238  POPC      O14           -13.5323784854      -24.0150323764      -21.7733057912  MEMB      238             0.0000000000
     26936       238  POPC      O12           -14.3189806115      -25.1586299076      -19.6838741117  MEMB      238             0.0000000000
     26937       238  POPC      O11           -13.8148052092      -22.7622303326      -19.5163067390  MEMB      238             0.0000000000
     26938       238  POPC      C1            -14.0335849580      -21.4142458618      -19.8898634308  MEMB      238             0.0000000000
     26939       238  POPC      HA            -15.1114931008      -21.2943992913      -20.1308443405  MEMB      238             0.0000000000
     26940       238  POPC      HB            -13.5309599632      -21.1132773550      -20.8338480355  MEMB      238             0.0000000000
     26941       238  POPC      C2            -13.6078174506      -20.3211010842      -18.8062808140  MEMB      238             0.0000000000
     26942       238  POPC      HS            -13.6295578995      -19.3541625388      -19.3529783734  MEMB      238             0.0000000000
     26943       238  POPC      O21           -12.2439500893      -20.5434585503      -18.3146896700  MEMB      238             0.0000000000
     26944       238  POPC      C21           -11.1948520806      -20.3140723829      -19.1374238490  MEMB      238             0.0000000000
     26945       238  POPC      O22           -11.1935977171      -19.8298864232      -20.2492705204  MEMB      238             0.0000000000
     26946       238  POPC      C22            -9.8417602102      -20.7906320504      -18.3808778389  MEMB      238             0.0000000000
     26947       238  POPC      H2R            -9.2649684552      -19.9942545499      -17.8637554695  MEMB      238             0.0000000000
     26948       238  POPC      H2S            -9.1925670947      -21.0542505582      -19.2430696230  MEMB      238             0.0000000000
     26949       238  POPC      C3            -14.5517006977      -20.2759951343      -17.5818208123  MEMB      238             0.0000000000
     26950       238  POPC      HX            -15.5837394738      -19.9841080468      -17.8716807988  MEMB      238             0.0000000000
     26951       238  POPC      HY            -14.2954325219      -19.3626105395      -17.0035679760  MEMB      238             0.0000000000
     26952       238  POPC      O31           -14.5867168914      -21.4800557615      -16.8474027174  MEMB      238             0.0000000000
     26953       238  POPC      C31           -15.4961581633      -21.5933646568      -15.9082278389  MEMB      238             0.0000000000
     26954       238  POPC      O32           -16.1977892508      -20.6785276960      -15.4729716787  MEMB      238             0.0000000000
     26955       238  POPC      C32           -15.3022299927      -23.0341900995      -15.2845600107  MEMB      238             0.0000000000
     26956       238  POPC      H2X           -14.3115547426      -23.2802908508      -14.8460191435  MEMB      238             0.0000000000
     26957       238  POPC      H2Y           -15.5371738959      -23.7838754119      -16.0701133703  MEMB      238             0.0000000000
     26958       238  POPC      C23           -10.0242549117      -22.0570688863      -17.5829015451  MEMB      238             0.0000000000
     26959       238  POPC      H3R            -9.1786888919      -22.6941038224      -17.9198373912  MEMB      238             0.0000000000
     26960       238  POPC      H3S           -10.8893544128      -22.6822665159      -17.8912059640  MEMB      238             0.0000000000
     26961       238  POPC      C24            -9.9316907635      -21.8894318397      -16.0649914516  MEMB      238             0.0000000000
     26962       238  POPC      H4R            -9.2169975210      -21.0884560203      -15.7786834754  MEMB      238             0.0000000000
     26963       238  POPC      H4S            -9.5262138040      -22.8653671288      -15.7222675483  MEMB      238             0.0000000000
     26964       238  POPC      C25           -11.2150979721      -21.6568705710      -15.3284294957  MEMB      238             0.0000000000
     26965       238  POPC      H5R           -11.6398863548      -22.6420596007      -15.0398499983  MEMB      238             0.0000000000
     26966       238  POPC      H5S           -11.9061126031      -21.0463765975      -15.9482012007  MEMB      238             0.0000000000
     26967       238  POPC      C26           -11.2159318671      -20.7899615776      -14.0402290914  MEMB      238             0.0000000000
     26968       238  POPC      H6R           -12.2511540957      -20.7174261896      -13.6435245066  MEMB      238             0.0000000000
     26969       238  POPC      H6S           -11.0666156787      -19.7440052812      -14.3837416143  MEMB      238             0.0000000000
     26970       238  POPC      C27           -10.2990513362      -21.1520892740      -12.8140648779  MEMB      238             0.0000000000
     26971       238  POPC      H7R           -10.2783113792      -20.3198480054      -12.0783578218  MEMB      238             0.0000000000
     26972       238  POPC      H7S            -9.3253194398      -21.1375503016      -13.3488135976  MEMB      238             0.0000000000
     26973       238  POPC      C28           -10.5065598098      -22.5827276802      -12.2140745236  MEMB      238             0.0000000000
     26974       238  POPC      H8R            -9.6530514255      -22.8680069601      -11.5625687294  MEMB      238             0.0000000000
     26975       238  POPC      H8S           -10.4671526594      -23.2723241061      -13.0842613585  MEMB      238             0.0000000000
     26976       238  POPC      C29           -11.8656074076      -22.8068841400      -11.5712574486  MEMB      238             0.0000000000
     26977       238  POPC      H91           -12.5186823627      -23.2182041024      -12.3550362394  MEMB      238             0.0000000000
     26978       238  POPC      C210          -12.3379195544      -22.6098366589      -10.3804164913  MEMB      238             0.0000000000
     26979       238  POPC      H101          -13.4140588529      -22.7264208477      -10.1846299850  MEMB      238             0.0000000000
     26980       238  POPC      C211          -11.5083486059      -22.0062412543       -9.1956887389  MEMB      238             0.0000000000
     26981       238  POPC      H11R          -10.4538034504      -21.9115047861       -9.5322610883  MEMB      238             0.0000000000
     26982       238  POPC      H11S          -11.6741742628      -22.6077480529       -8.2764436051  MEMB      238             0.0000000000
     26983       238  POPC      C212          -11.9992814931      -20.6305499209       -8.7552260423  MEMB      238             0.0000000000
     26984       238  POPC      H12R          -12.0365911477      -19.9490842601       -9.6318864277  MEMB      238             0.0000000000
     26985       238  POPC      H12S          -11.3357006667      -20.1467795547       -8.0069302201  MEMB      238             0.0000000000
     26986       238  POPC      C213          -13.4856491581      -20.7513725107       -8.2315166621  MEMB      238             0.0000000000
     26987       238  POPC      H13R          -14.1363736625      -21.2141484408       -9.0039913029  MEMB      238             0.0000000000
     26988       238  POPC      H13S          -13.8183395251      -19.6994448879       -8.1008033158  MEMB      238             0.0000000000
     26989       238  POPC      C214          -13.6711023984      -21.3449459445       -6.8390876521  MEMB      238             0.0000000000
     26990       238  POPC      H14R          -12.9957877077      -20.7412998469       -6.1957511017  MEMB      238             0.0000000000
     26991       238  POPC      H14S          -13.4129969641      -22.4254860683       -6.8274499085  MEMB      238             0.0000000000
     26992       238  POPC      C215          -15.1134550068      -21.4026231169       -6.2967411263  MEMB      238             0.0000000000
     26993       238  POPC      H15R          -15.8474135963      -22.0542401058       -6.8173371888  MEMB      238             0.0000000000
     26994       238  POPC      H15S          -15.4199274384      -20.3570987957       -6.5141680973  MEMB      238             0.0000000000
     26995       238  POPC      C216          -15.3378141004      -21.8528247975       -4.7934978929  MEMB      238             0.0000000000
     26996       238  POPC      H16R          -15.0401052569      -21.1091098493       -4.0237064933  MEMB      238             0.0000000000
     26997       238  POPC      H16S          -14.7762562038      -22.7796284554       -4.5485311689  MEMB      238             0.0000000000
     26998       238  POPC      C217          -16.8764605913      -22.2910391343       -4.4566549912  MEMB      238             0.0000000000
     26999       238  POPC      H17R          -17.1782873220      -23.0350324992       -5.2245715733  MEMB      238             0.0000000000
     27000       238  POPC      H17S          -17.4333310856      -21.3312573924       -4.5117493250  MEMB      238             0.0000000000
     27001       238  POPC      C218          -17.1620678916      -22.7731843070       -3.0089950910  MEMB      238             0.0000000000
     27002       238  POPC      H18R          -16.5973229332      -23.7041548799       -2.7883646840  MEMB      238             0.0000000000
     27003       238  POPC      H18S          -18.2372969692      -22.9340425080       -2.7802425342  MEMB      238             0.0000000000
     27004       238  POPC      H18T          -16.8510696054      -22.0742473628       -2.2033358279  MEMB      238             0.0000000000
     27005       238  POPC      C33           -16.2236374455      -23.1045280208      -14.0569685105  MEMB      238             0.0000000000
     27006       238  POPC      H3X           -17.2570306887      -22.7242879196      -14.2047416693  MEMB      238             0.0000000000
     27007       238  POPC      H3Y           -15.7454658491      -22.3916246137      -13.3516728518  MEMB      238             0.0000000000
     27008       238  POPC      C34           -16.2325618407      -24.5006760680      -13.4598090696  MEMB      238             0.0000000000
     27009       238  POPC      H4X           -16.6115034917      -25.3027413912      -14.1287006106  MEMB      238             0.0000000000
     27010       238  POPC      H4Y           -16.8414182962      -24.5243872371      -12.5308029997  MEMB      238             0.0000000000
     27011       238  POPC      C35           -14.8663030277      -25.1441020365      -13.0225860049  MEMB      238             0.0000000000
     27012       238  POPC      H5X           -14.2812088965      -24.4227251221      -12.4129948653  MEMB      238             0.0000000000
     27013       238  POPC      H5Y           -14.2158995704      -25.3445437914      -13.9007197486  MEMB      238             0.0000000000
     27014       238  POPC      C36           -14.9699742150      -26.4822425494      -12.1500786328  MEMB      238             0.0000000000
     27015       238  POPC      H6X           -14.2203864720      -27.1864464177      -12.5702407064  MEMB      238             0.0000000000
     27016       238  POPC      H6Y           -16.0209183131      -26.8109390388      -12.2977137982  MEMB      238             0.0000000000
     27017       238  POPC      C37           -14.5227403766      -26.2692135728      -10.6876878928  MEMB      238             0.0000000000
     27018       238  POPC      H7X           -13.5609724735      -25.7166367308      -10.6245812177  MEMB      238             0.0000000000
     27019       238  POPC      H7Y           -14.3944988231      -27.2908298327      -10.2703446677  MEMB      238             0.0000000000
     27020       238  POPC      C38           -15.5236168216      -25.5027818775       -9.7805817227  MEMB      238             0.0000000000
     27021       238  POPC      H8X           -16.5871879211      -25.7379617206       -9.9992780150  MEMB      238             0.0000000000
     27022       238  POPC      H8Y           -15.4736029485      -24.4066307980       -9.9545719964  MEMB      238             0.0000000000
     27023       238  POPC      C39           -15.3024218089      -25.8358344516       -8.2784186921  MEMB      238             0.0000000000
     27024       238  POPC      H9X           -15.3240333464      -26.9346939980       -8.1160558536  MEMB      238             0.0000000000
     27025       238  POPC      H9Y           -16.1338036835      -25.4713405728       -7.6378954689  MEMB      238             0.0000000000
     27026       238  POPC      C310          -14.0200813413      -25.3177072904       -7.7162656435  MEMB      238             0.0000000000
     27027       238  POPC      H10X          -13.8414210272      -24.2449340938       -7.9433321829  MEMB      238             0.0000000000
     27028       238  POPC      H10Y          -13.1803132951      -25.8337186297       -8.2289474781  MEMB      238             0.0000000000
     27029       238  POPC      C311          -13.8232719191      -25.6207066287       -6.1823334163  MEMB      238             0.0000000000
     27030       238  POPC      H11X          -13.6634409308      -26.7198273657       -6.1557133742  MEMB      238             0.0000000000
     27031       238  POPC      H11Y          -14.7237348817      -25.4278587512       -5.5608060181  MEMB      238             0.0000000000
     27032       238  POPC      C312          -12.6252320523      -25.0125877067       -5.5841873463  MEMB      238             0.0000000000
     27033       238  POPC      H12X          -12.8291619123      -24.0249201674       -5.1180903162  MEMB      238             0.0000000000
     27034       238  POPC      H12Y          -11.9393177463      -24.7940746689       -6.4304106520  MEMB      238             0.0000000000
     27035       238  POPC      C313          -11.8668709116      -25.9031373042       -4.6361136640  MEMB      238             0.0000000000
     27036       238  POPC      H13X          -10.8079772157      -25.5861254985       -4.5240050454  MEMB      238             0.0000000000
     27037       238  POPC      H13Y          -11.7667133235      -26.9087336852       -5.0977036249  MEMB      238             0.0000000000
     27038       238  POPC      C314          -12.6119957766      -26.1254709721       -3.2741721505  MEMB      238             0.0000000000
     27039       238  POPC      H14X          -13.4557152992      -26.8118032097       -3.5009016292  MEMB      238             0.0000000000
     27040       238  POPC      H14Y          -12.9575760507      -25.1141846404       -2.9705357073  MEMB      238             0.0000000000
     27041       238  POPC      C315          -11.7639803875      -26.6758496987       -2.1373039112  MEMB      238             0.0000000000
     27042       238  POPC      H15X          -11.4696112486      -27.7149493020       -2.3979583782  MEMB      238             0.0000000000
     27043       238  POPC      H15Y          -12.4281630778      -26.8118157268       -1.2571375552  MEMB      238             0.0000000000
     27044       238  POPC      C316          -10.6578710061      -25.7193457205       -1.8698598346  MEMB      238             0.0000000000
     27045       238  POPC      H16X          -10.9273428173      -24.6445701006       -1.9508745275  MEMB      238             0.0000000000
     27046       238  POPC      H16Y           -9.7730797025      -26.1343506868       -2.3982889715  MEMB      238             0.0000000000
     27047       238  POPC      H16Z          -10.4089812544      -25.8130429981       -0.7911590277  MEMB      238             0.0000000000
     27048       239  POPC      N              10.1377236210      -34.0509318887      -18.4812231002  MEMB      239             0.0000000000
     27049       239  POPC      C12             9.8180463884      -33.5720556151      -19.8677647442  MEMB      239             0.0000000000
     27050       239  POPC      H12A            9.9388750956      -34.3539730740      -20.6028874742  MEMB      239             0.0000000000
     27051       239  POPC      H12B           10.6012550230      -32.8766054305      -20.1310767214  MEMB      239             0.0000000000
     27052       239  POPC      C13            10.3097334712      -32.8818383427      -17.5182121821  MEMB      239             0.0000000000
     27053       239  POPC      H13A           11.0231273442      -32.1661856761      -17.8994082375  MEMB      239             0.0000000000
     27054       239  POPC      H13B            9.3261483751      -32.4378301198      -17.5608395759  MEMB      239             0.0000000000
     27055       239  POPC      H13C           10.5506304537      -33.2862993319      -16.5462143490  MEMB      239             0.0000000000
     27056       239  POPC      C14             9.0032248909      -34.8882365061      -17.9183935874  MEMB      239             0.0000000000
     27057       239  POPC      H14A            9.1675410052      -35.0437216222      -16.8623515976  MEMB      239             0.0000000000
     27058       239  POPC      H14B            8.0418478175      -34.4106933346      -18.0371651699  MEMB      239             0.0000000000
     27059       239  POPC      H14C            9.1729968750      -35.8827156439      -18.3038656665  MEMB      239             0.0000000000
     27060       239  POPC      C15            11.4235806652      -34.7909746892      -18.5802691096  MEMB      239             0.0000000000
     27061       239  POPC      H15A           11.4379011548      -35.2843150434      -17.6196390538  MEMB      239             0.0000000000
     27062       239  POPC      H15B           12.2470858735      -34.1187609545      -18.7709726081  MEMB      239             0.0000000000
     27063       239  POPC      H15C           11.3590611329      -35.6160585077      -19.2741522830  MEMB      239             0.0000000000
     27064       239  POPC      C11             8.4537001023      -32.8546230268      -20.1180530217  MEMB      239             0.0000000000
     27065       239  POPC      H11A            7.5620787972      -33.5157838557      -20.1649437354  MEMB      239             0.0000000000
     27066       239  POPC      H11B            8.4679490056      -32.4420651938      -21.1495151091  MEMB      239             0.0000000000
     27067       239  POPC      P               8.4505488629      -30.2951838837      -19.3180450380  MEMB      239             0.0000000000
     27068       239  POPC      O13             7.5236593478      -29.6666070312      -18.3630366673  MEMB      239             0.0000000000
     27069       239  POPC      O14             8.2292188430      -29.9578463643      -20.7291926176  MEMB      239             0.0000000000
     27070       239  POPC      O12             8.2150691023      -31.8077580082      -19.1720537882  MEMB      239             0.0000000000
     27071       239  POPC      O11             9.9843342947      -30.0675857627      -18.9337561507  MEMB      239             0.0000000000
     27072       239  POPC      C1             10.8631332643      -29.5058466495      -19.9317462011  MEMB      239             0.0000000000
     27073       239  POPC      HA             10.3535890446      -28.5928009585      -20.3072897182  MEMB      239             0.0000000000
     27074       239  POPC      HB             11.1077839032      -30.2623048678      -20.7077862098  MEMB      239             0.0000000000
     27075       239  POPC      C2             12.2007641702      -29.0199347968      -19.3785893561  MEMB      239             0.0000000000
     27076       239  POPC      HS             12.8505345675      -28.6842065783      -20.2148944782  MEMB      239             0.0000000000
     27077       239  POPC      O21            12.8085166316      -30.1008258881      -18.6328891918  MEMB      239             0.0000000000
     27078       239  POPC      C21            13.5541612826      -30.8618841895      -19.3151258686  MEMB      239             0.0000000000
     27079       239  POPC      O22            13.5951438574      -30.9316943637      -20.5567031659  MEMB      239             0.0000000000
     27080       239  POPC      C22            14.3365354709      -31.7901476233      -18.3281259048  MEMB      239             0.0000000000
     27081       239  POPC      H2R            15.2753056002      -31.8516234043      -18.9191018585  MEMB      239             0.0000000000
     27082       239  POPC      H2S            13.8891234817      -32.8069463824      -18.3118884747  MEMB      239             0.0000000000
     27083       239  POPC      C3             12.0928572896      -27.7681840350      -18.4714020060  MEMB      239             0.0000000000
     27084       239  POPC      HX             11.7765658230      -26.8358514319      -18.9862191248  MEMB      239             0.0000000000
     27085       239  POPC      HY             13.1463365719      -27.5874089399      -18.1683786556  MEMB      239             0.0000000000
     27086       239  POPC      O31            11.2646430818      -28.0893933464      -17.3384409835  MEMB      239             0.0000000000
     27087       239  POPC      C31            11.8102643652      -28.2859312813      -16.1713395679  MEMB      239             0.0000000000
     27088       239  POPC      O32            13.0191713857      -28.5243856973      -16.0041852148  MEMB      239             0.0000000000
     27089       239  POPC      C32            10.8709406755      -28.1675740220      -15.0827901076  MEMB      239             0.0000000000
     27090       239  POPC      H2X            10.5850809787      -27.1058826768      -14.9233646694  MEMB      239             0.0000000000
     27091       239  POPC      H2Y            11.3733280095      -28.5875794240      -14.1852802818  MEMB      239             0.0000000000
     27092       239  POPC      C23            14.6204813175      -31.3545581894      -16.8463726579  MEMB      239             0.0000000000
     27093       239  POPC      H3R            14.9380705715      -30.2961759514      -16.7311119575  MEMB      239             0.0000000000
     27094       239  POPC      H3S            15.4426015640      -32.0564749980      -16.5899515151  MEMB      239             0.0000000000
     27095       239  POPC      C24            13.4216549439      -31.6735569077      -15.9680797883  MEMB      239             0.0000000000
     27096       239  POPC      H4R            13.2438244025      -32.7701019193      -15.9511614079  MEMB      239             0.0000000000
     27097       239  POPC      H4S            12.5463993247      -31.1018749713      -16.3441489322  MEMB      239             0.0000000000
     27098       239  POPC      C25            13.6955349861      -31.1815786549      -14.4840416590  MEMB      239             0.0000000000
     27099       239  POPC      H5R            13.5451430993      -30.0813178860      -14.4504326637  MEMB      239             0.0000000000
     27100       239  POPC      H5S            14.7009959296      -31.4863869064      -14.1228477241  MEMB      239             0.0000000000
     27101       239  POPC      C26            12.7288121515      -31.8665193994      -13.4258614024  MEMB      239             0.0000000000
     27102       239  POPC      H6R            12.6911058186      -32.9642645233      -13.2589627321  MEMB      239             0.0000000000
     27103       239  POPC      H6S            11.6883141101      -31.5720940753      -13.6808094292  MEMB      239             0.0000000000
     27104       239  POPC      C27            13.0626454594      -31.2598777945      -12.1004831702  MEMB      239             0.0000000000
     27105       239  POPC      H7R            12.7898047825      -30.1864488709      -12.1878290203  MEMB      239             0.0000000000
     27106       239  POPC      H7S            14.1147527199      -31.4530861769      -11.8003803971  MEMB      239             0.0000000000
     27107       239  POPC      C28            12.3327792903      -31.7895324253      -10.9423640608  MEMB      239             0.0000000000
     27108       239  POPC      H8R            11.2537788821      -31.7594520909      -11.2053740445  MEMB      239             0.0000000000
     27109       239  POPC      H8S            12.4306609366      -31.1623095155      -10.0305896787  MEMB      239             0.0000000000
     27110       239  POPC      C29            12.6955864510      -33.2546243972      -10.6976584328  MEMB      239             0.0000000000
     27111       239  POPC      H91            12.4391784198      -33.9630959291      -11.4991093608  MEMB      239             0.0000000000
     27112       239  POPC      C210           13.4116643307      -33.6866260256       -9.6247560688  MEMB      239             0.0000000000
     27113       239  POPC      H101           13.7211442206      -34.7382436271       -9.5335296324  MEMB      239             0.0000000000
     27114       239  POPC      C211           13.8817557764      -32.7283944007       -8.5167587764  MEMB      239             0.0000000000
     27115       239  POPC      H11R           13.8035266001      -31.6603221618       -8.8124317537  MEMB      239             0.0000000000
     27116       239  POPC      H11S           14.9456858485      -32.9636457007       -8.2998948474  MEMB      239             0.0000000000
     27117       239  POPC      C212           13.0455005296      -32.9321463501       -7.1459168329  MEMB      239             0.0000000000
     27118       239  POPC      H12R           13.2854881757      -34.0008931660       -6.9601556538  MEMB      239             0.0000000000
     27119       239  POPC      H12S           11.9604877525      -32.7579131485       -7.3093515667  MEMB      239             0.0000000000
     27120       239  POPC      C213           13.5054147997      -32.1516143627       -5.9582768005  MEMB      239             0.0000000000
     27121       239  POPC      H13R           14.6103710359      -32.2541387734       -6.0119510801  MEMB      239             0.0000000000
     27122       239  POPC      H13S           13.1526967883      -32.4715120857       -4.9544950678  MEMB      239             0.0000000000
     27123       239  POPC      C214           13.1706318201      -30.6253105600       -6.0724970575  MEMB      239             0.0000000000
     27124       239  POPC      H14R           12.0815274220      -30.4111981710       -6.0242406950  MEMB      239             0.0000000000
     27125       239  POPC      H14S           13.5308326357      -30.2542469695       -7.0558019707  MEMB      239             0.0000000000
     27126       239  POPC      C215           13.8513926168      -29.9204121411       -4.9175757909  MEMB      239             0.0000000000
     27127       239  POPC      H15R           14.9356850498      -30.1308351016       -5.0373793303  MEMB      239             0.0000000000
     27128       239  POPC      H15S           13.5465767613      -30.3522866771       -3.9403896937  MEMB      239             0.0000000000
     27129       239  POPC      C216           13.7863525149      -28.3596854779       -4.8461500967  MEMB      239             0.0000000000
     27130       239  POPC      H16R           14.2232358294      -27.9269886468       -5.7714749686  MEMB      239             0.0000000000
     27131       239  POPC      H16S           14.4395302525      -28.0467793669       -4.0036718670  MEMB      239             0.0000000000
     27132       239  POPC      C217           12.3258257977      -27.7648790653       -4.7947536123  MEMB      239             0.0000000000
     27133       239  POPC      H17R           11.8038204344      -27.8685875272       -5.7699850547  MEMB      239             0.0000000000
     27134       239  POPC      H17S           12.5444473965      -26.6894394604       -4.6216785748  MEMB      239             0.0000000000
     27135       239  POPC      C218           11.4493227524      -28.1854563508       -3.6511483568  MEMB      239             0.0000000000
     27136       239  POPC      H18R           11.9664543624      -28.0113688105       -2.6833726983  MEMB      239             0.0000000000
     27137       239  POPC      H18S           11.2605211173      -29.2802578978       -3.6603195148  MEMB      239             0.0000000000
     27138       239  POPC      H18T           10.4911964782      -27.6278777070       -3.7247776319  MEMB      239             0.0000000000
     27139       239  POPC      C33             9.5940195254      -28.9965761609      -15.4278467517  MEMB      239             0.0000000000
     27140       239  POPC      H3X             9.9389141482      -30.0311140036      -15.6402157483  MEMB      239             0.0000000000
     27141       239  POPC      H3Y             9.0594725291      -28.6755550079      -16.3473717235  MEMB      239             0.0000000000
     27142       239  POPC      C34             8.5359872072      -29.0728396082      -14.2355616242  MEMB      239             0.0000000000
     27143       239  POPC      H4X             7.7173120611      -29.6790872439      -14.6789079706  MEMB      239             0.0000000000
     27144       239  POPC      H4Y             8.1177764639      -28.0805467287      -13.9621099356  MEMB      239             0.0000000000
     27145       239  POPC      C35             9.0999543419      -29.6603892455      -12.8997315525  MEMB      239             0.0000000000
     27146       239  POPC      H5X             9.7485163357      -29.0301371137      -12.2543859377  MEMB      239             0.0000000000
     27147       239  POPC      H5Y             9.5755093217      -30.6475646332      -13.0831800261  MEMB      239             0.0000000000
     27148       239  POPC      C36             7.8568026386      -29.8423855108      -11.9886571469  MEMB      239             0.0000000000
     27149       239  POPC      H6X             7.2686593482      -30.6199579166      -12.5213761559  MEMB      239             0.0000000000
     27150       239  POPC      H6Y             7.2233765039      -28.9368234805      -11.8744225500  MEMB      239             0.0000000000
     27151       239  POPC      C37             8.2811357441      -30.3687210207      -10.5994352864  MEMB      239             0.0000000000
     27152       239  POPC      H7X             8.7688023214      -29.5684304340      -10.0027470421  MEMB      239             0.0000000000
     27153       239  POPC      H7Y             9.0464196090      -31.1289951499      -10.8652261404  MEMB      239             0.0000000000
     27154       239  POPC      C38             7.2961906560      -31.0356252325       -9.6333421966  MEMB      239             0.0000000000
     27155       239  POPC      H8X             6.6391472228      -31.7709922633      -10.1450555590  MEMB      239             0.0000000000
     27156       239  POPC      H8Y             6.6333588236      -30.2730873612       -9.1712703474  MEMB      239             0.0000000000
     27157       239  POPC      C39             7.9733090242      -31.7644165058       -8.4376358808  MEMB      239             0.0000000000
     27158       239  POPC      H9X             8.5135525939      -32.6622537460       -8.8068859629  MEMB      239             0.0000000000
     27159       239  POPC      H9Y             7.1434521767      -32.1392966217       -7.8011424295  MEMB      239             0.0000000000
     27160       239  POPC      C310            9.0005092183      -30.9998843412       -7.5910087626  MEMB      239             0.0000000000
     27161       239  POPC      H10X            8.5833332193      -30.0498607601       -7.1938439737  MEMB      239             0.0000000000
     27162       239  POPC      H10Y            9.7791824198      -30.7924582242       -8.3558380180  MEMB      239             0.0000000000
     27163       239  POPC      C311            9.5169734133      -31.7475071764       -6.3811389006  MEMB      239             0.0000000000
     27164       239  POPC      H11X           10.4211565693      -31.2847080676       -5.9310381226  MEMB      239             0.0000000000
     27165       239  POPC      H11Y            9.6537982625      -32.8248978874       -6.6152958499  MEMB      239             0.0000000000
     27166       239  POPC      C312            8.4247874134      -31.9388956118       -5.2292588878  MEMB      239             0.0000000000
     27167       239  POPC      H12X            8.8900403726      -32.5963101476       -4.4639695879  MEMB      239             0.0000000000
     27168       239  POPC      H12Y            7.5705317922      -32.4779251745       -5.6918767347  MEMB      239             0.0000000000
     27169       239  POPC      C313            8.0813373054      -30.6512414881       -4.4397857663  MEMB      239             0.0000000000
     27170       239  POPC      H13X            7.2718875687      -30.1534099884       -5.0153513321  MEMB      239             0.0000000000
     27171       239  POPC      H13Y            8.9996326387      -30.0413189873       -4.3017670663  MEMB      239             0.0000000000
     27172       239  POPC      C314            7.5768672888      -30.9963697521       -3.0615109239  MEMB      239             0.0000000000
     27173       239  POPC      H14X            6.9601345468      -30.1535811501       -2.6824753492  MEMB      239             0.0000000000
     27174       239  POPC      H14Y            8.3628647505      -31.2165250117       -2.3078142722  MEMB      239             0.0000000000
     27175       239  POPC      C315            6.5098213254      -32.0940617078       -2.9474527780  MEMB      239             0.0000000000
     27176       239  POPC      H15X            6.7333554993      -33.0672250708       -3.4345942594  MEMB      239             0.0000000000
     27177       239  POPC      H15Y            5.6636119045      -31.6972138646       -3.5480879755  MEMB      239             0.0000000000
     27178       239  POPC      C316            6.0267179685      -32.3210956766       -1.5266480680  MEMB      239             0.0000000000
     27179       239  POPC      H16X            6.9048857113      -32.6310220276       -0.9207698390  MEMB      239             0.0000000000
     27180       239  POPC      H16Y            5.2232636303      -33.0814887565       -1.4237668905  MEMB      239             0.0000000000
     27181       239  POPC      H16Z            5.5740671724      -31.3552087008       -1.2160177540  MEMB      239             0.0000000000
     27182       240  POPC      N             -21.3178007108       20.8131546029      -19.2120275615  MEMB      240             0.0000000000
     27183       240  POPC      C12           -21.2306896520       19.4695487690      -18.4613698278  MEMB      240             0.0000000000
     27184       240  POPC      H12A          -22.1874123409       19.2254471437      -18.0237668734  MEMB      240             0.0000000000
     27185       240  POPC      H12B          -20.5889978078       19.6348319025      -17.6085432423  MEMB      240             0.0000000000
     27186       240  POPC      C13           -19.9039039518       21.2521995634      -19.3938012614  MEMB      240             0.0000000000
     27187       240  POPC      H13A          -19.3311757293       20.6106195054      -20.0470679565  MEMB      240             0.0000000000
     27188       240  POPC      H13B          -19.8313507674       22.2522969694      -19.7949761558  MEMB      240             0.0000000000
     27189       240  POPC      H13C          -19.3207359256       21.2615843200      -18.4848310236  MEMB      240             0.0000000000
     27190       240  POPC      C14           -21.9981733974       20.7297462348      -20.5142014857  MEMB      240             0.0000000000
     27191       240  POPC      H14A          -21.9709151184       21.7401256781      -20.8947143361  MEMB      240             0.0000000000
     27192       240  POPC      H14B          -21.4319304027       20.1091124588      -21.1928639558  MEMB      240             0.0000000000
     27193       240  POPC      H14C          -23.0188549853       20.4302900704      -20.3272927938  MEMB      240             0.0000000000
     27194       240  POPC      C15           -22.0141045482       21.9007061317      -18.4472149468  MEMB      240             0.0000000000
     27195       240  POPC      H15A          -22.9058080714       21.4829146299      -18.0036893326  MEMB      240             0.0000000000
     27196       240  POPC      H15B          -22.3281669370       22.7911336566      -18.9715272534  MEMB      240             0.0000000000
     27197       240  POPC      H15C          -21.3830042735       22.2676496485      -17.6513098174  MEMB      240             0.0000000000
     27198       240  POPC      C11           -20.6942199025       18.2086069693      -19.1823396333  MEMB      240             0.0000000000
     27199       240  POPC      H11A          -21.3482716607       18.1312804939      -20.0770786157  MEMB      240             0.0000000000
     27200       240  POPC      H11B          -20.7224061206       17.3209080386      -18.5148688587  MEMB      240             0.0000000000
     27201       240  POPC      P             -18.1608681988       17.8349952035      -18.7155770973  MEMB      240             0.0000000000
     27202       240  POPC      O13           -16.9292363938       18.1567871156      -19.4934256633  MEMB      240             0.0000000000
     27203       240  POPC      O14           -18.2801397141       16.4015269930      -18.2567285798  MEMB      240             0.0000000000
     27204       240  POPC      O12           -19.3950738949       18.2847635330      -19.6955557359  MEMB      240             0.0000000000
     27205       240  POPC      O11           -18.3445667378       19.0186049830      -17.6277582027  MEMB      240             0.0000000000
     27206       240  POPC      C1            -17.9268565489       18.8572757340      -16.2895339893  MEMB      240             0.0000000000
     27207       240  POPC      HA            -16.9503220622       19.3776841282      -16.1901527399  MEMB      240             0.0000000000
     27208       240  POPC      HB            -17.6881647961       17.7991895400      -16.0491163390  MEMB      240             0.0000000000
     27209       240  POPC      C2            -18.9500884896       19.3585627064      -15.1958472141  MEMB      240             0.0000000000
     27210       240  POPC      HS            -18.6285184424       19.0264910366      -14.1855788090  MEMB      240             0.0000000000
     27211       240  POPC      O21           -20.2767775763       18.8798744983      -15.5684696520  MEMB      240             0.0000000000
     27212       240  POPC      C21           -20.4925604890       17.5092206485      -15.3290546753  MEMB      240             0.0000000000
     27213       240  POPC      O22           -19.6562924705       16.7912350320      -14.8087618798  MEMB      240             0.0000000000
     27214       240  POPC      C22           -21.8952420166       16.9638605234      -15.7650587424  MEMB      240             0.0000000000
     27215       240  POPC      H2R           -21.7448915358       16.1266372492      -16.4797424757  MEMB      240             0.0000000000
     27216       240  POPC      H2S           -22.5195216173       17.7988417998      -16.1489885496  MEMB      240             0.0000000000
     27217       240  POPC      C3            -18.9203810861       20.8912025149      -15.2106096618  MEMB      240             0.0000000000
     27218       240  POPC      HX            -19.2657845730       21.4001939206      -16.1357827905  MEMB      240             0.0000000000
     27219       240  POPC      HY            -17.8870419505       21.2496977520      -15.0156427426  MEMB      240             0.0000000000
     27220       240  POPC      O31           -19.7370055568       21.2986781797      -14.0665939348  MEMB      240             0.0000000000
     27221       240  POPC      C31           -19.7412209764       22.6617432105      -13.9164667920  MEMB      240             0.0000000000
     27222       240  POPC      O32           -18.9870612494       23.4328732572      -14.4418118248  MEMB      240             0.0000000000
     27223       240  POPC      C32           -20.7980997913       23.0521310524      -12.9101246718  MEMB      240             0.0000000000
     27224       240  POPC      H2X           -21.4045736611       22.1640625373      -12.6311183399  MEMB      240             0.0000000000
     27225       240  POPC      H2Y           -21.5571281436       23.8125251417      -13.1929627854  MEMB      240             0.0000000000
     27226       240  POPC      C23           -22.5489898048       16.2092225779      -14.6196628266  MEMB      240             0.0000000000
     27227       240  POPC      H3R           -21.9191504620       15.3082208482      -14.4589785657  MEMB      240             0.0000000000
     27228       240  POPC      H3S           -23.5536421668       15.8377205524      -14.9145883815  MEMB      240             0.0000000000
     27229       240  POPC      C24           -22.5688730773       16.8720641706      -13.1962186452  MEMB      240             0.0000000000
     27230       240  POPC      H4R           -21.5681958116       17.0361170670      -12.7422884098  MEMB      240             0.0000000000
     27231       240  POPC      H4S           -23.1522125322       16.2159760135      -12.5153485942  MEMB      240             0.0000000000
     27232       240  POPC      C25           -23.1994088674       18.3140366652      -13.0635625640  MEMB      240             0.0000000000
     27233       240  POPC      H5R           -24.2118380407       18.3835800506      -13.5157478555  MEMB      240             0.0000000000
     27234       240  POPC      H5S           -22.6592573525       19.0735680293      -13.6682687142  MEMB      240             0.0000000000
     27235       240  POPC      C26           -23.3000012026       18.8098471245      -11.6446847589  MEMB      240             0.0000000000
     27236       240  POPC      H6R           -22.2658262038       18.8625347849      -11.2421589561  MEMB      240             0.0000000000
     27237       240  POPC      H6S           -23.8434631448       18.0506796904      -11.0424931929  MEMB      240             0.0000000000
     27238       240  POPC      C27           -23.9949577788       20.1373408356      -11.6313363057  MEMB      240             0.0000000000
     27239       240  POPC      H7R           -25.0338248863       19.9565656384      -11.9811878404  MEMB      240             0.0000000000
     27240       240  POPC      H7S           -23.5819117096       20.8682054036      -12.3590387066  MEMB      240             0.0000000000
     27241       240  POPC      C28           -24.1943125259       20.8656609470      -10.2276570973  MEMB      240             0.0000000000
     27242       240  POPC      H8R           -24.9373229555       20.2081784397       -9.7276839761  MEMB      240             0.0000000000
     27243       240  POPC      H8S           -24.5886048539       21.8852638617      -10.4258109342  MEMB      240             0.0000000000
     27244       240  POPC      C29           -22.8088084222       21.0250274759       -9.5077479798  MEMB      240             0.0000000000
     27245       240  POPC      H91           -22.1855615549       21.8703726980       -9.8347872736  MEMB      240             0.0000000000
     27246       240  POPC      C210          -22.3859489192       20.2448827063       -8.4884277550  MEMB      240             0.0000000000
     27247       240  POPC      H101          -21.5009927207       20.5555282521       -7.9136655682  MEMB      240             0.0000000000
     27248       240  POPC      C211          -23.1473943568       19.0924279655       -7.8672442926  MEMB      240             0.0000000000
     27249       240  POPC      H11R          -23.2655043311       18.2397130134       -8.5695605152  MEMB      240             0.0000000000
     27250       240  POPC      H11S          -24.1837761635       19.4551451843       -7.6979226590  MEMB      240             0.0000000000
     27251       240  POPC      C212          -22.5229863714       18.6325266644       -6.5224414059  MEMB      240             0.0000000000
     27252       240  POPC      H12R          -21.4199791404       18.6051243510       -6.6526149558  MEMB      240             0.0000000000
     27253       240  POPC      H12S          -22.6869550016       17.5507516953       -6.3295733742  MEMB      240             0.0000000000
     27254       240  POPC      C213          -22.9051783507       19.4650470551       -5.2390436860  MEMB      240             0.0000000000
     27255       240  POPC      H13R          -24.0161209753       19.4539331704       -5.2411150057  MEMB      240             0.0000000000
     27256       240  POPC      H13S          -22.6156358728       20.5327107401       -5.3419049051  MEMB      240             0.0000000000
     27257       240  POPC      C214          -22.3273128775       18.8278397658       -3.9680650059  MEMB      240             0.0000000000
     27258       240  POPC      H14R          -21.2172770236       18.8287546362       -4.0143300062  MEMB      240             0.0000000000
     27259       240  POPC      H14S          -22.7952153393       17.8274424195       -3.8472616042  MEMB      240             0.0000000000
     27260       240  POPC      C215          -22.7444617785       19.4669363167       -2.5816328179  MEMB      240             0.0000000000
     27261       240  POPC      H15R          -22.1806143759       18.8508715373       -1.8489239868  MEMB      240             0.0000000000
     27262       240  POPC      H15S          -23.8291390199       19.2487258120       -2.4807324291  MEMB      240             0.0000000000
     27263       240  POPC      C216          -22.3043961494       20.9456042470       -2.5803564551  MEMB      240             0.0000000000
     27264       240  POPC      H16R          -22.8052446853       21.5507982288       -3.3659858241  MEMB      240             0.0000000000
     27265       240  POPC      H16S          -21.2218035937       20.8597649806       -2.8147620832  MEMB      240             0.0000000000
     27266       240  POPC      C217          -22.5132705245       21.6634045707       -1.2493855724  MEMB      240             0.0000000000
     27267       240  POPC      H17R          -22.0521961665       21.1082739692       -0.4046598636  MEMB      240             0.0000000000
     27268       240  POPC      H17S          -23.5579835482       21.7947476109       -0.8949220016  MEMB      240             0.0000000000
     27269       240  POPC      C218          -21.7984697889       23.0477632280       -1.2918198981  MEMB      240             0.0000000000
     27270       240  POPC      H18R          -22.0873812687       23.6187798320       -0.3836388775  MEMB      240             0.0000000000
     27271       240  POPC      H18S          -22.0817420274       23.5066063016       -2.2631789253  MEMB      240             0.0000000000
     27272       240  POPC      H18T          -20.6881445928       23.0101896081       -1.2824889199  MEMB      240             0.0000000000
     27273       240  POPC      C33           -20.0932869862       23.3114584199      -11.5958314180  MEMB      240             0.0000000000
     27274       240  POPC      H3X           -20.9039592720       23.4928077525      -10.8581019631  MEMB      240             0.0000000000
     27275       240  POPC      H3Y           -19.4584481484       24.2139454139      -11.7255159628  MEMB      240             0.0000000000
     27276       240  POPC      C34           -19.0855677509       22.1767995747      -11.1152045241  MEMB      240             0.0000000000
     27277       240  POPC      H4X           -18.3693335365       21.8566064457      -11.9018469557  MEMB      240             0.0000000000
     27278       240  POPC      H4Y           -19.7268903709       21.3495804115      -10.7427335192  MEMB      240             0.0000000000
     27279       240  POPC      C35           -18.3894209101       22.6453299580       -9.7872451140  MEMB      240             0.0000000000
     27280       240  POPC      H5X           -18.1309801565       23.7253779617       -9.7552169682  MEMB      240             0.0000000000
     27281       240  POPC      H5Y           -17.4586094405       22.0527233611       -9.6579069177  MEMB      240             0.0000000000
     27282       240  POPC      C36           -19.0874482392       22.3557193400       -8.4323052934  MEMB      240             0.0000000000
     27283       240  POPC      H6X           -19.3284559792       21.2727864062       -8.3732059536  MEMB      240             0.0000000000
     27284       240  POPC      H6Y           -20.0074139613       22.9785985198       -8.4299759345  MEMB      240             0.0000000000
     27285       240  POPC      C37           -18.2608683913       22.8001483840       -7.1742039176  MEMB      240             0.0000000000
     27286       240  POPC      H7X           -18.8035522244       23.6858860891       -6.7801434333  MEMB      240             0.0000000000
     27287       240  POPC      H7Y           -17.2910693714       23.1069304916       -7.6210775159  MEMB      240             0.0000000000
     27288       240  POPC      C38           -18.2037397793       21.7280204561       -6.0095231572  MEMB      240             0.0000000000
     27289       240  POPC      H8X           -19.1827997458       21.3609328857       -5.6340107018  MEMB      240             0.0000000000
     27290       240  POPC      H8Y           -17.6937315951       22.2404244851       -5.1659270472  MEMB      240             0.0000000000
     27291       240  POPC      C39           -17.2541834675       20.5394218498       -6.3217322769  MEMB      240             0.0000000000
     27292       240  POPC      H9X           -16.5080952891       20.9426177421       -7.0394408298  MEMB      240             0.0000000000
     27293       240  POPC      H9Y           -17.7385824632       19.7213634633       -6.8965874152  MEMB      240             0.0000000000
     27294       240  POPC      C310          -16.6124922564       19.9623641133       -5.0730271691  MEMB      240             0.0000000000
     27295       240  POPC      H10X          -15.7619169600       20.4933244376       -4.5945675965  MEMB      240             0.0000000000
     27296       240  POPC      H10Y          -16.2032049633       18.9988946858       -5.4452255647  MEMB      240             0.0000000000
     27297       240  POPC      C311          -17.7275712408       19.6394342414       -3.9854875925  MEMB      240             0.0000000000
     27298       240  POPC      H11X          -18.5974964702       19.1892685344       -4.5097984460  MEMB      240             0.0000000000
     27299       240  POPC      H11Y          -18.0459112964       20.6055796977       -3.5387855251  MEMB      240             0.0000000000
     27300       240  POPC      C312          -17.2495492367       18.8108767052       -2.8503195442  MEMB      240             0.0000000000
     27301       240  POPC      H12X          -17.9182850096       18.9988802487       -1.9832742838  MEMB      240             0.0000000000
     27302       240  POPC      H12Y          -16.2542949860       19.1960546210       -2.5414047130  MEMB      240             0.0000000000
     27303       240  POPC      C313          -17.2506608983       17.2852174151       -3.1919186510  MEMB      240             0.0000000000
     27304       240  POPC      H13X          -16.7090979267       16.6748981726       -2.4379022484  MEMB      240             0.0000000000
     27305       240  POPC      H13Y          -16.8476824047       17.1561727494       -4.2191854131  MEMB      240             0.0000000000
     27306       240  POPC      C314          -18.6793389143       16.6599992267       -3.1731252552  MEMB      240             0.0000000000
     27307       240  POPC      H14X          -18.5571320322       15.5708849862       -3.3553772975  MEMB      240             0.0000000000
     27308       240  POPC      H14Y          -19.2671769677       17.0972630789       -4.0083304373  MEMB      240             0.0000000000
     27309       240  POPC      C315          -19.4773620331       16.8477196165       -1.8349558335  MEMB      240             0.0000000000
     27310       240  POPC      H15X          -19.6230553185       17.9331357773       -1.6479648182  MEMB      240             0.0000000000
     27311       240  POPC      H15Y          -18.8553261435       16.6075582384       -0.9462974125  MEMB      240             0.0000000000
     27312       240  POPC      C316          -20.7639488439       16.0512693572       -1.7533130432  MEMB      240             0.0000000000
     27313       240  POPC      H16X          -21.3026609906       16.0872787418       -2.7242987352  MEMB      240             0.0000000000
     27314       240  POPC      H16Y          -21.4325819343       16.3347763016       -0.9125539778  MEMB      240             0.0000000000
     27315       240  POPC      H16Z          -20.5654539173       14.9898277807       -1.4920426362  MEMB      240             0.0000000000
     27316       241  POPC      N             -31.5927648205        7.0252441548      -20.7185242057  MEMB      241             0.0000000000
     27317       241  POPC      C12           -31.6861293276        8.4370590377      -20.2006248727  MEMB      241             0.0000000000
     27318       241  POPC      H12A          -32.3963038140        8.9331536270      -20.8455607026  MEMB      241             0.0000000000
     27319       241  POPC      H12B          -30.6716782671        8.7959009324      -20.2929360665  MEMB      241             0.0000000000
     27320       241  POPC      C13           -32.9727503420        6.4705635932      -20.9235796257  MEMB      241             0.0000000000
     27321       241  POPC      H13A          -32.9431827160        5.5761022898      -21.5281165242  MEMB      241             0.0000000000
     27322       241  POPC      H13B          -33.4073212822        6.1452232564      -19.9899299335  MEMB      241             0.0000000000
     27323       241  POPC      H13C          -33.6307395008        7.1723698833      -21.4144138153  MEMB      241             0.0000000000
     27324       241  POPC      C14           -30.9205778787        7.0070811051      -22.1120618631  MEMB      241             0.0000000000
     27325       241  POPC      H14A          -31.6073939011        7.2554804897      -22.9076633545  MEMB      241             0.0000000000
     27326       241  POPC      H14B          -30.0519392297        7.6483243049      -22.0861040811  MEMB      241             0.0000000000
     27327       241  POPC      H14C          -30.4461660092        6.0545971434      -22.2967444497  MEMB      241             0.0000000000
     27328       241  POPC      C15           -30.7149074599        6.1567591560      -19.7660205728  MEMB      241             0.0000000000
     27329       241  POPC      H15A          -29.8305065539        6.6982577593      -19.4643348346  MEMB      241             0.0000000000
     27330       241  POPC      H15B          -30.4064560870        5.2342172069      -20.2352476547  MEMB      241             0.0000000000
     27331       241  POPC      H15C          -31.1481553104        5.8738085057      -18.8180568729  MEMB      241             0.0000000000
     27332       241  POPC      C11           -32.1100870213        8.7196251089      -18.6866128602  MEMB      241             0.0000000000
     27333       241  POPC      H11A          -32.2956778444        9.8045079902      -18.5352653569  MEMB      241             0.0000000000
     27334       241  POPC      H11B          -31.2449417753        8.3424813293      -18.1004326334  MEMB      241             0.0000000000
     27335       241  POPC      P             -33.4217072947        6.9755354176      -17.2608022405  MEMB      241             0.0000000000
     27336       241  POPC      O13           -32.5345070791        7.3169850859      -16.1900437142  MEMB      241             0.0000000000
     27337       241  POPC      O14           -33.1786124460        5.6620982588      -17.8914259324  MEMB      241             0.0000000000
     27338       241  POPC      O12           -33.2975573804        8.0520296665      -18.3471106163  MEMB      241             0.0000000000
     27339       241  POPC      O11           -34.9270000029        7.1031626891      -16.9031934949  MEMB      241             0.0000000000
     27340       241  POPC      C1            -35.7971852364        8.2232548979      -17.2618101878  MEMB      241             0.0000000000
     27341       241  POPC      HA            -36.7765838053        7.7572128677      -17.5024430180  MEMB      241             0.0000000000
     27342       241  POPC      HB            -35.4730356525        8.7062620481      -18.2083577227  MEMB      241             0.0000000000
     27343       241  POPC      C2            -35.9335807731        9.3201769054      -16.1240442083  MEMB      241             0.0000000000
     27344       241  POPC      HS            -36.6587873770       10.0727986975      -16.5008153389  MEMB      241             0.0000000000
     27345       241  POPC      O21           -34.6846401457        9.7773564351      -15.7584861537  MEMB      241             0.0000000000
     27346       241  POPC      C21           -34.6663942169       11.0755256772      -15.3989882904  MEMB      241             0.0000000000
     27347       241  POPC      O22           -35.5083722198       11.8970720310      -15.4913286668  MEMB      241             0.0000000000
     27348       241  POPC      C22           -33.3473511782       11.5446146122      -14.8487505681  MEMB      241             0.0000000000
     27349       241  POPC      H2R           -33.3144566955       11.9505654849      -13.8150955438  MEMB      241             0.0000000000
     27350       241  POPC      H2S           -32.9611325466       12.2999342661      -15.5661404674  MEMB      241             0.0000000000
     27351       241  POPC      C3            -36.5571534289        8.6967082759      -14.8918688125  MEMB      241             0.0000000000
     27352       241  POPC      HX            -37.4834162409        8.1237487874      -15.1111301003  MEMB      241             0.0000000000
     27353       241  POPC      HY            -36.8139080516        9.5398731343      -14.2155026828  MEMB      241             0.0000000000
     27354       241  POPC      O31           -35.6071670755        7.8023031009      -14.3253022598  MEMB      241             0.0000000000
     27355       241  POPC      C31           -35.2461084004        7.9602667653      -13.0460262925  MEMB      241             0.0000000000
     27356       241  POPC      O32           -35.4796773817        8.9257374933      -12.3135559819  MEMB      241             0.0000000000
     27357       241  POPC      C32           -34.2499176971        6.8648281683      -12.5525277692  MEMB      241             0.0000000000
     27358       241  POPC      H2X           -33.2947092860        7.3396352129      -12.2419537141  MEMB      241             0.0000000000
     27359       241  POPC      H2Y           -33.9513367119        6.1916272051      -13.3843755256  MEMB      241             0.0000000000
     27360       241  POPC      C23           -32.2950713216       10.4269187557      -14.8149554451  MEMB      241             0.0000000000
     27361       241  POPC      H3R           -32.2907086975        9.9328544973      -15.8100443124  MEMB      241             0.0000000000
     27362       241  POPC      H3S           -32.5398722439        9.7100265746      -14.0022688743  MEMB      241             0.0000000000
     27363       241  POPC      C24           -30.8065848964       10.9940967855      -14.7586861836  MEMB      241             0.0000000000
     27364       241  POPC      H4R           -30.5087202766       11.5640051233      -15.6646675383  MEMB      241             0.0000000000
     27365       241  POPC      H4S           -30.1125392104       10.1393649419      -14.6101770420  MEMB      241             0.0000000000
     27366       241  POPC      C25           -30.5012606948       11.9743292203      -13.5620697962  MEMB      241             0.0000000000
     27367       241  POPC      H5R           -31.0128657875       12.9549163433      -13.6670943844  MEMB      241             0.0000000000
     27368       241  POPC      H5S           -29.4037539563       12.1196792244      -13.6552002463  MEMB      241             0.0000000000
     27369       241  POPC      C26           -30.6669281260       11.2652882720      -12.1742481974  MEMB      241             0.0000000000
     27370       241  POPC      H6R           -31.6091648463       10.6820367817      -12.0946934730  MEMB      241             0.0000000000
     27371       241  POPC      H6S           -30.6212078960       12.1471614121      -11.5000598812  MEMB      241             0.0000000000
     27372       241  POPC      C27           -29.4095894789       10.4189489354      -11.7569294203  MEMB      241             0.0000000000
     27373       241  POPC      H7R           -28.5273513643       11.0941978799      -11.7530540746  MEMB      241             0.0000000000
     27374       241  POPC      H7S           -29.1510848360        9.6014010389      -12.4634078519  MEMB      241             0.0000000000
     27375       241  POPC      C28           -29.4288152537        9.9018447019      -10.3055541695  MEMB      241             0.0000000000
     27376       241  POPC      H8R           -29.5472993476       10.8448678886       -9.7302368818  MEMB      241             0.0000000000
     27377       241  POPC      H8S           -28.4021584514        9.6028732024      -10.0040368141  MEMB      241             0.0000000000
     27378       241  POPC      C29           -30.4895786360        8.9669869038       -9.8587459124  MEMB      241             0.0000000000
     27379       241  POPC      H91           -30.5750414667        8.0546216256      -10.4672571370  MEMB      241             0.0000000000
     27380       241  POPC      C210          -31.2798361916        9.1849449167       -8.7984409787  MEMB      241             0.0000000000
     27381       241  POPC      H101          -31.9841327410        8.3591038749       -8.6196869398  MEMB      241             0.0000000000
     27382       241  POPC      C211          -31.3834614203       10.3597572182       -7.8047632568  MEMB      241             0.0000000000
     27383       241  POPC      H11R          -32.2155885780       11.0656735169       -8.0134913038  MEMB      241             0.0000000000
     27384       241  POPC      H11S          -30.4234522116       10.9120983164       -7.8920723663  MEMB      241             0.0000000000
     27385       241  POPC      C212          -31.4502054120        9.9213985029       -6.3092112543  MEMB      241             0.0000000000
     27386       241  POPC      H12R          -32.2933676871        9.2000462232       -6.2539916958  MEMB      241             0.0000000000
     27387       241  POPC      H12S          -31.7286962215       10.7281630627       -5.5979485733  MEMB      241             0.0000000000
     27388       241  POPC      C213          -30.0865518926        9.3448425084       -5.7395671047  MEMB      241             0.0000000000
     27389       241  POPC      H13R          -29.4704326652       10.1450263812       -5.2765077390  MEMB      241             0.0000000000
     27390       241  POPC      H13S          -29.5000636526        8.7410829543       -6.4647058102  MEMB      241             0.0000000000
     27391       241  POPC      C214          -30.2033553541        8.2969255537       -4.5729714106  MEMB      241             0.0000000000
     27392       241  POPC      H14R          -29.2026306891        8.0710160007       -4.1465490273  MEMB      241             0.0000000000
     27393       241  POPC      H14S          -30.5780069094        7.3046055468       -4.9035138357  MEMB      241             0.0000000000
     27394       241  POPC      C215          -31.0474060146        8.6670230776       -3.4065735550  MEMB      241             0.0000000000
     27395       241  POPC      H15R          -31.2162037113        7.8087831606       -2.7215533295  MEMB      241             0.0000000000
     27396       241  POPC      H15S          -31.9974335545        8.9692420053       -3.8969120342  MEMB      241             0.0000000000
     27397       241  POPC      C216          -30.3861077648        9.8755073053       -2.5904336227  MEMB      241             0.0000000000
     27398       241  POPC      H16R          -30.4851808350       10.7255484202       -3.2989068328  MEMB      241             0.0000000000
     27399       241  POPC      H16S          -29.3428992731        9.5012975764       -2.5129473416  MEMB      241             0.0000000000
     27400       241  POPC      C217          -31.0496328770       10.1911787124       -1.2658998320  MEMB      241             0.0000000000
     27401       241  POPC      H17R          -30.8373788962        9.3366166662       -0.5884093594  MEMB      241             0.0000000000
     27402       241  POPC      H17S          -32.1537072824       10.2720496126       -1.3597106604  MEMB      241             0.0000000000
     27403       241  POPC      C218          -30.5713905109       11.5549430841       -0.7437349734  MEMB      241             0.0000000000
     27404       241  POPC      H18R          -31.0139253578       11.8262049511        0.2385594665  MEMB      241             0.0000000000
     27405       241  POPC      H18S          -30.7211212783       12.3594341294       -1.4951971897  MEMB      241             0.0000000000
     27406       241  POPC      H18T          -29.5110180563       11.4877265475       -0.4190602768  MEMB      241             0.0000000000
     27407       241  POPC      C33           -34.9186367577        5.9971184851      -11.4852180117  MEMB      241             0.0000000000
     27408       241  POPC      H3X           -35.8726118765        5.6301216192      -11.9206091321  MEMB      241             0.0000000000
     27409       241  POPC      H3Y           -35.0899730646        6.5651082703      -10.5458822398  MEMB      241             0.0000000000
     27410       241  POPC      C34           -34.0992615675        4.7504586024      -11.0680073502  MEMB      241             0.0000000000
     27411       241  POPC      H4X           -33.1709971641        5.0909483560      -10.5613382792  MEMB      241             0.0000000000
     27412       241  POPC      H4Y           -33.7081215150        4.2491372081      -11.9790547657  MEMB      241             0.0000000000
     27413       241  POPC      C35           -34.9164492746        3.7565011383      -10.2451568412  MEMB      241             0.0000000000
     27414       241  POPC      H5X           -34.1700439716        3.0401450433       -9.8401465936  MEMB      241             0.0000000000
     27415       241  POPC      H5Y           -35.7084279759        3.2788867737      -10.8607672370  MEMB      241             0.0000000000
     27416       241  POPC      C36           -35.7029211586        4.3150539280       -9.0730428826  MEMB      241             0.0000000000
     27417       241  POPC      H6X           -36.1648881832        3.5302990482       -8.4365939277  MEMB      241             0.0000000000
     27418       241  POPC      H6Y           -36.5535575974        4.9424115070       -9.4153308691  MEMB      241             0.0000000000
     27419       241  POPC      C37           -34.7567022985        5.0679577603       -8.0742647130  MEMB      241             0.0000000000
     27420       241  POPC      H7X           -34.3151103918        5.9806153808       -8.5285479474  MEMB      241             0.0000000000
     27421       241  POPC      H7Y           -33.8861982284        4.4445563880       -7.7777609509  MEMB      241             0.0000000000
     27422       241  POPC      C38           -35.5857004799        5.5976558445       -6.8675467387  MEMB      241             0.0000000000
     27423       241  POPC      H8X           -35.9236801031        4.7566857187       -6.2250057840  MEMB      241             0.0000000000
     27424       241  POPC      H8Y           -36.4247363587        6.2848024888       -7.1087299497  MEMB      241             0.0000000000
     27425       241  POPC      C39           -34.8181853489        6.2562866139       -5.7987266467  MEMB      241             0.0000000000
     27426       241  POPC      H9X           -34.5313098524        7.2624447460       -6.1724501288  MEMB      241             0.0000000000
     27427       241  POPC      H9Y           -33.9564295648        5.5820978116       -5.6059384145  MEMB      241             0.0000000000
     27428       241  POPC      C310          -35.5258654605        6.3313590977       -4.4416055260  MEMB      241             0.0000000000
     27429       241  POPC      H10X          -35.8072819201        5.3292111622       -4.0532425782  MEMB      241             0.0000000000
     27430       241  POPC      H10Y          -36.3174622298        7.1108997486       -4.4381392890  MEMB      241             0.0000000000
     27431       241  POPC      C311          -34.4744439387        6.8930685342       -3.4905383642  MEMB      241             0.0000000000
     27432       241  POPC      H11X          -34.0768479206        7.8724370766       -3.8327010258  MEMB      241             0.0000000000
     27433       241  POPC      H11Y          -33.5930969804        6.2252738638       -3.3828401463  MEMB      241             0.0000000000
     27434       241  POPC      C312          -34.9926018900        7.1048715458       -2.0373930359  MEMB      241             0.0000000000
     27435       241  POPC      H12X          -35.4674763121        6.1771451410       -1.6525059946  MEMB      241             0.0000000000
     27436       241  POPC      H12Y          -35.6941160429        7.9660767535       -2.0144903052  MEMB      241             0.0000000000
     27437       241  POPC      C313          -33.8533472957        7.3317007281       -0.9912881154  MEMB      241             0.0000000000
     27438       241  POPC      H13X          -33.2167107580        8.0310606725       -1.5743052189  MEMB      241             0.0000000000
     27439       241  POPC      H13Y          -33.3208669650        6.4207510046       -0.6434995997  MEMB      241             0.0000000000
     27440       241  POPC      C314          -34.2257447288        8.1232175035        0.3349678378  MEMB      241             0.0000000000
     27441       241  POPC      H14X          -34.9214166049        8.9719896149        0.1619163685  MEMB      241             0.0000000000
     27442       241  POPC      H14Y          -33.2829070236        8.5922460006        0.6890738327  MEMB      241             0.0000000000
     27443       241  POPC      C315          -35.1042610046        7.2776791441        1.2270407857  MEMB      241             0.0000000000
     27444       241  POPC      H15X          -34.5053882526        6.3593810703        1.4070438424  MEMB      241             0.0000000000
     27445       241  POPC      H15Y          -35.9631088984        7.0070511826        0.5763015558  MEMB      241             0.0000000000
     27446       241  POPC      C316          -35.5201397146        7.9318755387        2.5440639665  MEMB      241             0.0000000000
     27447       241  POPC      H16X          -36.1549056300        7.1260139014        2.9706559538  MEMB      241             0.0000000000
     27448       241  POPC      H16Y          -36.1622059463        8.8292986491        2.4148212374  MEMB      241             0.0000000000
     27449       241  POPC      H16Z          -34.5910024354        7.9924866776        3.1501591733  MEMB      241             0.0000000000
     27450       242  POPC      N             -13.5231055851       24.0530151425      -20.9877013809  MEMB      242             0.0000000000
     27451       242  POPC      C12           -12.6173169392       24.3180397229      -19.7346052319  MEMB      242             0.0000000000
     27452       242  POPC      H12A          -11.6146248996       24.4240621362      -20.1216039797  MEMB      242             0.0000000000
     27453       242  POPC      H12B          -12.7378507891       23.4712798725      -19.0751590035  MEMB      242             0.0000000000
     27454       242  POPC      C13           -14.9901255663       23.8974152379      -20.4864056161  MEMB      242             0.0000000000
     27455       242  POPC      H13A          -15.5000224075       23.4199155371      -21.3100555644  MEMB      242             0.0000000000
     27456       242  POPC      H13B          -15.0511033305       23.3536069430      -19.5553016858  MEMB      242             0.0000000000
     27457       242  POPC      H13C          -15.4279865474       24.8689737742      -20.3110439202  MEMB      242             0.0000000000
     27458       242  POPC      C14           -13.2816440081       25.1596727829      -22.0130111567  MEMB      242             0.0000000000
     27459       242  POPC      H14A          -13.7967965379       26.0430578395      -21.6656660456  MEMB      242             0.0000000000
     27460       242  POPC      H14B          -12.2146474006       25.3133999089      -22.0784811509  MEMB      242             0.0000000000
     27461       242  POPC      H14C          -13.7158838527       24.8778047759      -22.9608436099  MEMB      242             0.0000000000
     27462       242  POPC      C15           -13.0371514695       22.7080224844      -21.4684662670  MEMB      242             0.0000000000
     27463       242  POPC      H15A          -12.0704517138       22.8603566403      -21.9252879387  MEMB      242             0.0000000000
     27464       242  POPC      H15B          -13.7236894497       22.2997864315      -22.1953837431  MEMB      242             0.0000000000
     27465       242  POPC      H15C          -12.9511215569       22.0083556867      -20.6502577162  MEMB      242             0.0000000000
     27466       242  POPC      C11           -12.7366952960       25.6475271848      -18.9364723397  MEMB      242             0.0000000000
     27467       242  POPC      H11A          -12.5383419127       26.4384964541      -19.6910217133  MEMB      242             0.0000000000
     27468       242  POPC      H11B          -11.8438829434       25.8116895525      -18.2959585810  MEMB      242             0.0000000000
     27469       242  POPC      P             -14.4688560383       25.4073436383      -17.0479295220  MEMB      242             0.0000000000
     27470       242  POPC      O13           -14.3435244104       23.9671851036      -17.0326215475  MEMB      242             0.0000000000
     27471       242  POPC      O14           -15.8119624012       26.0204810944      -16.8200112540  MEMB      242             0.0000000000
     27472       242  POPC      O12           -14.0680801822       25.9043044849      -18.4660153968  MEMB      242             0.0000000000
     27473       242  POPC      O11           -13.4469652008       26.0248611221      -16.0067602922  MEMB      242             0.0000000000
     27474       242  POPC      C1            -13.0952874441       27.4076719883      -16.1551764184  MEMB      242             0.0000000000
     27475       242  POPC      HA            -13.9023616130       28.0756800249      -16.5249299665  MEMB      242             0.0000000000
     27476       242  POPC      HB            -12.2840642864       27.5049592759      -16.9080198664  MEMB      242             0.0000000000
     27477       242  POPC      C2            -12.6912570944       28.0437662084      -14.7280681077  MEMB      242             0.0000000000
     27478       242  POPC      HS            -11.7655768963       28.6263485258      -14.9230929527  MEMB      242             0.0000000000
     27479       242  POPC      O21           -12.5117897272       27.1217159814      -13.6472264449  MEMB      242             0.0000000000
     27480       242  POPC      C21           -11.2421563269       26.6795280170      -13.5814193877  MEMB      242             0.0000000000
     27481       242  POPC      O22           -10.3534405672       26.7829438789      -14.3687227727  MEMB      242             0.0000000000
     27482       242  POPC      C22           -11.0830489739       25.8324353223      -12.3094024778  MEMB      242             0.0000000000
     27483       242  POPC      H2R           -10.0286139151       25.4920867873      -12.2278527255  MEMB      242             0.0000000000
     27484       242  POPC      H2S           -11.8277774098       25.0088633949      -12.3472155809  MEMB      242             0.0000000000
     27485       242  POPC      C3            -13.8811522272       28.9709079493      -14.3682376255  MEMB      242             0.0000000000
     27486       242  POPC      HX            -14.0050755420       29.6491716879      -15.2393992899  MEMB      242             0.0000000000
     27487       242  POPC      HY            -13.4900022046       29.6321990923      -13.5657310804  MEMB      242             0.0000000000
     27488       242  POPC      O31           -15.1111588040       28.2929654598      -13.9474941967  MEMB      242             0.0000000000
     27489       242  POPC      C31           -15.0633130178       28.0423188524      -12.5879080043  MEMB      242             0.0000000000
     27490       242  POPC      O32           -14.2495980161       28.4926439116      -11.8185930209  MEMB      242             0.0000000000
     27491       242  POPC      C32           -16.1490232746       27.1246169044      -12.2316386734  MEMB      242             0.0000000000
     27492       242  POPC      H2X           -15.8549231638       26.0610706371      -12.3608494743  MEMB      242             0.0000000000
     27493       242  POPC      H2Y           -17.0283985892       27.4364976439      -12.8347563264  MEMB      242             0.0000000000
     27494       242  POPC      C23           -11.3348337297       26.7725598209      -11.1368139264  MEMB      242             0.0000000000
     27495       242  POPC      H3R           -12.3818030979       26.7392199072      -10.7665911631  MEMB      242             0.0000000000
     27496       242  POPC      H3S           -11.0397699510       27.8072435555      -11.4137396987  MEMB      242             0.0000000000
     27497       242  POPC      C24           -10.6419493693       26.3188040361       -9.8433266141  MEMB      242             0.0000000000
     27498       242  POPC      H4R            -9.7450806413       25.8028123607      -10.2479255566  MEMB      242             0.0000000000
     27499       242  POPC      H4S           -11.2589110206       25.5795058398       -9.2891456253  MEMB      242             0.0000000000
     27500       242  POPC      C25           -10.2080316347       27.4747457915       -8.8644796776  MEMB      242             0.0000000000
     27501       242  POPC      H5R            -9.5004582325       27.9944470015       -9.5453404833  MEMB      242             0.0000000000
     27502       242  POPC      H5S            -9.6883489448       27.0638673525       -7.9726111241  MEMB      242             0.0000000000
     27503       242  POPC      C26           -11.2827222006       28.4744680583       -8.4393008630  MEMB      242             0.0000000000
     27504       242  POPC      H6R           -11.5808368864       28.8913940643       -9.4250088469  MEMB      242             0.0000000000
     27505       242  POPC      H6S           -10.7537511088       29.1756857156       -7.7590039385  MEMB      242             0.0000000000
     27506       242  POPC      C27           -12.4642862334       27.8100626703       -7.6716744089  MEMB      242             0.0000000000
     27507       242  POPC      H7R           -12.4433451266       27.8089813257       -6.5608727778  MEMB      242             0.0000000000
     27508       242  POPC      H7S           -12.4492674188       26.7248078499       -7.9089884766  MEMB      242             0.0000000000
     27509       242  POPC      C28           -13.8225717724       28.3564348070       -8.1973801200  MEMB      242             0.0000000000
     27510       242  POPC      H8R           -14.6019114672       27.7313060206       -7.7114118326  MEMB      242             0.0000000000
     27511       242  POPC      H8S           -13.8448679197       28.2849420108       -9.3058531400  MEMB      242             0.0000000000
     27512       242  POPC      C29           -14.0013608185       29.8119959678       -7.9371348968  MEMB      242             0.0000000000
     27513       242  POPC      H91           -13.5275119389       30.5472658335       -8.6041019763  MEMB      242             0.0000000000
     27514       242  POPC      C210          -14.5493221265       30.3957064147       -6.8912573196  MEMB      242             0.0000000000
     27515       242  POPC      H101          -14.5330615200       31.4954921531       -6.9056188983  MEMB      242             0.0000000000
     27516       242  POPC      C211          -15.1363998573       29.6452314369       -5.6560498305  MEMB      242             0.0000000000
     27517       242  POPC      H11R          -14.7108567399       28.6189606473       -5.6575725805  MEMB      242             0.0000000000
     27518       242  POPC      H11S          -16.2262803883       29.4457546689       -5.7378450659  MEMB      242             0.0000000000
     27519       242  POPC      C212          -14.8938115931       30.4133263854       -4.3236461684  MEMB      242             0.0000000000
     27520       242  POPC      H12R          -15.6559667860       31.1977409000       -4.1283666623  MEMB      242             0.0000000000
     27521       242  POPC      H12S          -13.9052499559       30.8938469516       -4.1618859344  MEMB      242             0.0000000000
     27522       242  POPC      C213          -15.0589160642       29.3670063288       -3.1798867633  MEMB      242             0.0000000000
     27523       242  POPC      H13R          -14.2473821809       28.6094315043       -3.2224805461  MEMB      242             0.0000000000
     27524       242  POPC      H13S          -16.0368330537       28.8418203853       -3.2265655895  MEMB      242             0.0000000000
     27525       242  POPC      C214          -14.9772374848       30.0382175321       -1.7448954696  MEMB      242             0.0000000000
     27526       242  POPC      H14R          -15.8454707720       30.7208671409       -1.6245562007  MEMB      242             0.0000000000
     27527       242  POPC      H14S          -14.1101790979       30.7328609029       -1.7459937401  MEMB      242             0.0000000000
     27528       242  POPC      C215          -14.8156872305       28.9839425138       -0.6163939088  MEMB      242             0.0000000000
     27529       242  POPC      H15R          -14.9691188478       29.5307371508        0.3384859315  MEMB      242             0.0000000000
     27530       242  POPC      H15S          -13.7772488624       28.6126437228       -0.7509464529  MEMB      242             0.0000000000
     27531       242  POPC      C216          -15.7774618053       27.7956053192       -0.6647736419  MEMB      242             0.0000000000
     27532       242  POPC      H16R          -15.4441889718       27.1363563007       -1.4946182135  MEMB      242             0.0000000000
     27533       242  POPC      H16S          -16.7706469682       28.2593479156       -0.8460119919  MEMB      242             0.0000000000
     27534       242  POPC      C217          -15.6578311191       26.8794672285        0.5543057297  MEMB      242             0.0000000000
     27535       242  POPC      H17R          -15.7541793595       27.5396182558        1.4426978024  MEMB      242             0.0000000000
     27536       242  POPC      H17S          -14.5806928012       26.6542969038        0.7072527035  MEMB      242             0.0000000000
     27537       242  POPC      C218          -16.5574944557       25.6762454895        0.4723759672  MEMB      242             0.0000000000
     27538       242  POPC      H18R          -16.7270844877       25.1626628572        1.4428354912  MEMB      242             0.0000000000
     27539       242  POPC      H18S          -16.2641041008       24.9845971210       -0.3460766996  MEMB      242             0.0000000000
     27540       242  POPC      H18T          -17.5721306398       26.0099640434        0.1666529881  MEMB      242             0.0000000000
     27541       242  POPC      C33           -16.4170063412       27.3251344761      -10.6575881803  MEMB      242             0.0000000000
     27542       242  POPC      H3X           -16.3480443363       28.3987681777      -10.3803234421  MEMB      242             0.0000000000
     27543       242  POPC      H3Y           -15.6437326610       26.7871302496      -10.0685887530  MEMB      242             0.0000000000
     27544       242  POPC      C34           -17.7434558300       26.6778289749      -10.1349461847  MEMB      242             0.0000000000
     27545       242  POPC      H4X           -17.9137346759       25.7321896911      -10.6927022077  MEMB      242             0.0000000000
     27546       242  POPC      H4Y           -18.6111489204       27.2491149363      -10.5287246928  MEMB      242             0.0000000000
     27547       242  POPC      C35           -17.8490827288       26.4739585326       -8.6070374390  MEMB      242             0.0000000000
     27548       242  POPC      H5X           -18.8623746143       26.8601482602       -8.3653397624  MEMB      242             0.0000000000
     27549       242  POPC      H5Y           -17.0342739663       26.9681677162       -8.0359298192  MEMB      242             0.0000000000
     27550       242  POPC      C36           -18.0890841809       24.9912678741       -8.2810537028  MEMB      242             0.0000000000
     27551       242  POPC      H6X           -18.8795875005       24.6261966644       -8.9710892798  MEMB      242             0.0000000000
     27552       242  POPC      H6Y           -18.5397922538       24.9344246151       -7.2671740494  MEMB      242             0.0000000000
     27553       242  POPC      C37           -16.9431317293       24.0245684012       -8.4848106751  MEMB      242             0.0000000000
     27554       242  POPC      H7X           -16.5631268105       24.1729202807       -9.5182077703  MEMB      242             0.0000000000
     27555       242  POPC      H7Y           -17.3728641977       23.0055714501       -8.3785257443  MEMB      242             0.0000000000
     27556       242  POPC      C38           -15.7448005881       24.3287502127       -7.5396141087  MEMB      242             0.0000000000
     27557       242  POPC      H8X           -15.3656092552       25.3719148187       -7.5880107260  MEMB      242             0.0000000000
     27558       242  POPC      H8Y           -14.8987607465       23.7440829777       -7.9599736034  MEMB      242             0.0000000000
     27559       242  POPC      C39           -15.9494423139       23.9680655549       -6.0658176008  MEMB      242             0.0000000000
     27560       242  POPC      H9X           -16.2738126364       22.9071785001       -6.0056219987  MEMB      242             0.0000000000
     27561       242  POPC      H9Y           -16.6705430451       24.6465454978       -5.5618335380  MEMB      242             0.0000000000
     27562       242  POPC      C310          -14.5872611346       23.9510490641       -5.3106676263  MEMB      242             0.0000000000
     27563       242  POPC      H10X          -14.2735634636       25.0056254960       -5.4648861727  MEMB      242             0.0000000000
     27564       242  POPC      H10Y          -13.9479960283       23.2249266963       -5.8569344811  MEMB      242             0.0000000000
     27565       242  POPC      C311          -14.7983367766       23.5633097942       -3.8770033477  MEMB      242             0.0000000000
     27566       242  POPC      H11X          -15.2391595971       22.5437916318       -3.9010569353  MEMB      242             0.0000000000
     27567       242  POPC      H11Y          -15.5595524156       24.2723117334       -3.4868898741  MEMB      242             0.0000000000
     27568       242  POPC      C312          -13.5856617485       23.8146771499       -2.9569839280  MEMB      242             0.0000000000
     27569       242  POPC      H12X          -13.4308492182       24.8964042919       -2.7564342957  MEMB      242             0.0000000000
     27570       242  POPC      H12Y          -12.6758161041       23.4781988145       -3.4985410177  MEMB      242             0.0000000000
     27571       242  POPC      C313          -13.8613550405       23.0848895061       -1.6380690135  MEMB      242             0.0000000000
     27572       242  POPC      H13X          -14.1696915655       22.0528452236       -1.9103467284  MEMB      242             0.0000000000
     27573       242  POPC      H13Y          -14.7109278873       23.4887993765       -1.0469659080  MEMB      242             0.0000000000
     27574       242  POPC      C314          -12.5812482026       22.9979894959       -0.7379308542  MEMB      242             0.0000000000
     27575       242  POPC      H14X          -12.0828249472       23.9721571545       -0.9300059081  MEMB      242             0.0000000000
     27576       242  POPC      H14Y          -11.9120104768       22.2577118649       -1.2262238428  MEMB      242             0.0000000000
     27577       242  POPC      C315          -12.8711206260       22.7853771370        0.7702234874  MEMB      242             0.0000000000
     27578       242  POPC      H15X          -12.7323954690       21.6936773426        0.9227629363  MEMB      242             0.0000000000
     27579       242  POPC      H15Y          -13.9132157860       23.0639236844        1.0362511234  MEMB      242             0.0000000000
     27580       242  POPC      C316          -11.9536746050       23.5205641337        1.7374727786  MEMB      242             0.0000000000
     27581       242  POPC      H16X          -10.8908591569       23.1994227253        1.6973152248  MEMB      242             0.0000000000
     27582       242  POPC      H16Y          -12.2458370737       23.3544555003        2.7964202763  MEMB      242             0.0000000000
     27583       242  POPC      H16Z          -11.9558438250       24.6116303490        1.5279711642  MEMB      242             0.0000000000
     27584       243  POPE      N              26.0650527341       -5.0472925746      -18.2225792256  MEMB      243             0.0000000000
     27585       243  POPE      HN1            25.8928319295       -4.6153688122      -17.2923202141  MEMB      243             0.0000000000
     27586       243  POPE      HN2            26.2096614798       -4.2555853073      -18.8812808863  MEMB      243             0.0000000000
     27587       243  POPE      HN3            25.2123330732       -5.5685867730      -18.5101929088  MEMB      243             0.0000000000
     27588       243  POPE      C12            27.2018416315       -6.0325659462      -18.1873841903  MEMB      243             0.0000000000
     27589       243  POPE      H12A           27.1203922588       -6.6946632454      -19.0758177900  MEMB      243             0.0000000000
     27590       243  POPE      H12B           27.1321966106       -6.6767820794      -17.2849119314  MEMB      243             0.0000000000
     27591       243  POPE      C11            28.5112268604       -5.2066477273      -18.1215923079  MEMB      243             0.0000000000
     27592       243  POPE      H11A           29.3774556828       -5.8522895390      -17.8625262619  MEMB      243             0.0000000000
     27593       243  POPE      H11B           28.3766262601       -4.3778296443      -17.3940867397  MEMB      243             0.0000000000
     27594       243  POPE      P              29.8256379727       -3.4270699964      -19.5585877223  MEMB      243             0.0000000000
     27595       243  POPE      O13            29.1301523078       -2.1181115443      -19.3368171557  MEMB      243             0.0000000000
     27596       243  POPE      O14            30.5752061081       -3.5918731867      -20.8094747285  MEMB      243             0.0000000000
     27597       243  POPE      O11            30.7845979318       -3.7406712705      -18.3411915802  MEMB      243             0.0000000000
     27598       243  POPE      O12            28.7517444788       -4.5980757581      -19.4223730892  MEMB      243             0.0000000000
     27599       243  POPE      C1             31.9209419318       -2.9808164288      -18.1954557353  MEMB      243             0.0000000000
     27600       243  POPE      HA             31.8962849595       -1.8933733875      -18.4216868682  MEMB      243             0.0000000000
     27601       243  POPE      HB             32.6376238630       -3.4926756863      -18.8727210822  MEMB      243             0.0000000000
     27602       243  POPE      C2             32.4732891245       -3.1597858555      -16.7821567869  MEMB      243             0.0000000000
     27603       243  POPE      HS             32.4613434327       -4.2450200760      -16.5445749881  MEMB      243             0.0000000000
     27604       243  POPE      O21            31.7132019192       -2.3153390597      -15.8409375359  MEMB      243             0.0000000000
     27605       243  POPE      C21            31.1219877579       -2.8126861398      -14.8020650204  MEMB      243             0.0000000000
     27606       243  POPE      O22            30.9046110359       -3.9880343534      -14.5699870524  MEMB      243             0.0000000000
     27607       243  POPE      C22            30.5767930573       -1.6827336564      -13.8543532846  MEMB      243             0.0000000000
     27608       243  POPE      H2R            29.5646730328       -1.8540434276      -13.4293980017  MEMB      243             0.0000000000
     27609       243  POPE      H2S            30.5829404311       -0.7317533699      -14.4287395466  MEMB      243             0.0000000000
     27610       243  POPE      C3             33.9586263408       -2.7714582809      -16.8957579065  MEMB      243             0.0000000000
     27611       243  POPE      HX             33.9910035761       -1.6955402434      -17.1708451395  MEMB      243             0.0000000000
     27612       243  POPE      HY             34.4879448936       -3.2843624424      -17.7270653795  MEMB      243             0.0000000000
     27613       243  POPE      O31            34.6214958503       -2.8309207979      -15.6444082269  MEMB      243             0.0000000000
     27614       243  POPE      C31            35.1289945863       -4.0286167606      -15.2240856267  MEMB      243             0.0000000000
     27615       243  POPE      O32            35.0492928721       -5.0799080621      -15.8423829483  MEMB      243             0.0000000000
     27616       243  POPE      C32            35.8465564160       -3.9649579187      -13.8344015439  MEMB      243             0.0000000000
     27617       243  POPE      H2X            36.4927999463       -3.0654874933      -13.9218254024  MEMB      243             0.0000000000
     27618       243  POPE      H2Y            36.5594879691       -4.8151628972      -13.7778293293  MEMB      243             0.0000000000
     27619       243  POPE      C23            31.4628946509       -1.6587293322      -12.5867959198  MEMB      243             0.0000000000
     27620       243  POPE      H3R            32.5398599702       -1.7815121358      -12.8304987895  MEMB      243             0.0000000000
     27621       243  POPE      H3S            31.1866672779       -2.4731593530      -11.8834303130  MEMB      243             0.0000000000
     27622       243  POPE      C24            31.3808350752       -0.3732266128      -11.7819793050  MEMB      243             0.0000000000
     27623       243  POPE      H4R            31.4203772590        0.5133421139      -12.4503753799  MEMB      243             0.0000000000
     27624       243  POPE      H4S            32.1488033071       -0.2116984616      -10.9955604538  MEMB      243             0.0000000000
     27625       243  POPE      C25            30.0845611200       -0.4201518501      -10.9534940764  MEMB      243             0.0000000000
     27626       243  POPE      H5R            29.8971035236       -1.4387089256      -10.5513469503  MEMB      243             0.0000000000
     27627       243  POPE      H5S            29.2362079698       -0.3259978764      -11.6646578250  MEMB      243             0.0000000000
     27628       243  POPE      C26            29.9714152324        0.7078609130       -9.9277500255  MEMB      243             0.0000000000
     27629       243  POPE      H6R            30.0900647982        1.6818350256      -10.4489196843  MEMB      243             0.0000000000
     27630       243  POPE      H6S            30.8402179830        0.6977783145       -9.2353618967  MEMB      243             0.0000000000
     27631       243  POPE      C27            28.6760029179        0.6549992492       -9.0379624446  MEMB      243             0.0000000000
     27632       243  POPE      H7R            27.9337407199       -0.0875700790       -9.4012233630  MEMB      243             0.0000000000
     27633       243  POPE      H7S            28.2593922561        1.6720552888       -9.2002998179  MEMB      243             0.0000000000
     27634       243  POPE      C28            29.0775397828        0.3045211681       -7.5831404442  MEMB      243             0.0000000000
     27635       243  POPE      H8R            29.6928057518        1.1439158770       -7.1943146063  MEMB      243             0.0000000000
     27636       243  POPE      H8S            29.7012400271       -0.6070057000       -7.7032979431  MEMB      243             0.0000000000
     27637       243  POPE      C29            27.8792952305       -0.0268234373       -6.7984440939  MEMB      243             0.0000000000
     27638       243  POPE      H91            27.3763267739        0.8307212817       -6.3276575385  MEMB      243             0.0000000000
     27639       243  POPE      C210           27.3834560241       -1.2670215925       -6.6173277930  MEMB      243             0.0000000000
     27640       243  POPE      H101           26.5194535088       -1.2934066275       -5.9370309452  MEMB      243             0.0000000000
     27641       243  POPE      C211           27.8825546869       -2.6140521464       -7.1156882202  MEMB      243             0.0000000000
     27642       243  POPE      H11R           28.5389404925       -2.3643867599       -7.9765861121  MEMB      243             0.0000000000
     27643       243  POPE      H11S           27.0074667699       -3.1779602227       -7.5036958323  MEMB      243             0.0000000000
     27644       243  POPE      C212           28.5192939881       -3.5565517998       -6.1210125718  MEMB      243             0.0000000000
     27645       243  POPE      H12R           28.9710014635       -4.2741990531       -6.8388315600  MEMB      243             0.0000000000
     27646       243  POPE      H12S           27.6205188040       -3.9450542387       -5.5960457602  MEMB      243             0.0000000000
     27647       243  POPE      C213           29.5284344827       -2.9563477076       -5.1115893503  MEMB      243             0.0000000000
     27648       243  POPE      H13R           29.0720331631       -2.1362576808       -4.5170546781  MEMB      243             0.0000000000
     27649       243  POPE      H13S           30.3388188929       -2.4503995629       -5.6786997371  MEMB      243             0.0000000000
     27650       243  POPE      C214           30.0211939592       -4.0459393292       -4.2734769710  MEMB      243             0.0000000000
     27651       243  POPE      H14R           30.8958653452       -4.5844968681       -4.6968283523  MEMB      243             0.0000000000
     27652       243  POPE      H14S           29.2311564920       -4.8219574574       -4.1842710664  MEMB      243             0.0000000000
     27653       243  POPE      C215           30.3996044896       -3.6581990373       -2.8551083388  MEMB      243             0.0000000000
     27654       243  POPE      H15R           30.7319148317       -4.6239954629       -2.4179269460  MEMB      243             0.0000000000
     27655       243  POPE      H15S           29.4969369865       -3.1841381145       -2.4137712297  MEMB      243             0.0000000000
     27656       243  POPE      C216           31.6836179228       -2.7022323507       -2.7577659148  MEMB      243             0.0000000000
     27657       243  POPE      H16R           31.4300485426       -1.8489930272       -3.4226020644  MEMB      243             0.0000000000
     27658       243  POPE      H16S           32.5735672520       -3.1540004932       -3.2458410245  MEMB      243             0.0000000000
     27659       243  POPE      C217           32.0375547881       -2.4442306057       -1.2178155241  MEMB      243             0.0000000000
     27660       243  POPE      H17R           32.7643799201       -1.6040712389       -1.2044873042  MEMB      243             0.0000000000
     27661       243  POPE      H17S           32.5775723647       -3.3399432710       -0.8431157863  MEMB      243             0.0000000000
     27662       243  POPE      C218           30.8712225917       -2.0634570504       -0.2926688488  MEMB      243             0.0000000000
     27663       243  POPE      H18R           31.2150814774       -1.8214512970        0.7356881183  MEMB      243             0.0000000000
     27664       243  POPE      H18S           30.0833700427       -2.8208132657       -0.0926162462  MEMB      243             0.0000000000
     27665       243  POPE      H18T           30.3655616909       -1.1292192580       -0.6179797192  MEMB      243             0.0000000000
     27666       243  POPE      C33            34.9212705252       -4.0518555116      -12.6323134942  MEMB      243             0.0000000000
     27667       243  POPE      H3X            34.2123364356       -3.2072841600      -12.7680815930  MEMB      243             0.0000000000
     27668       243  POPE      H3Y            35.5197461540       -3.9260743834      -11.7047755214  MEMB      243             0.0000000000
     27669       243  POPE      C34            34.0836489916       -5.3793222723      -12.6718188352  MEMB      243             0.0000000000
     27670       243  POPE      H4X            34.7749229744       -6.2181613894      -12.4420140041  MEMB      243             0.0000000000
     27671       243  POPE      H4Y            33.7831971274       -5.4615334592      -13.7382570994  MEMB      243             0.0000000000
     27672       243  POPE      C35            32.8698402652       -5.2802225047      -11.7411838390  MEMB      243             0.0000000000
     27673       243  POPE      H5X            32.0843486952       -6.0450302949      -11.9211651653  MEMB      243             0.0000000000
     27674       243  POPE      H5Y            32.4737577300       -4.2432801710      -11.7879813684  MEMB      243             0.0000000000
     27675       243  POPE      C36            33.2705492687       -5.5352121390      -10.2531206424  MEMB      243             0.0000000000
     27676       243  POPE      H6X            34.2341482655       -5.0128376107      -10.0716732253  MEMB      243             0.0000000000
     27677       243  POPE      H6Y            33.5093762643       -6.6198102313      -10.2836091564  MEMB      243             0.0000000000
     27678       243  POPE      C37            32.1416666832       -5.6596676688       -9.2108043539  MEMB      243             0.0000000000
     27679       243  POPE      H7X            32.5284694290       -6.0650539996       -8.2514468449  MEMB      243             0.0000000000
     27680       243  POPE      H7Y            31.3241733851       -6.2904886310       -9.6207930343  MEMB      243             0.0000000000
     27681       243  POPE      C38            31.4653207633       -4.3045156464       -8.9309260166  MEMB      243             0.0000000000
     27682       243  POPE      H8X            30.9849300538       -4.3816505251       -7.9321293334  MEMB      243             0.0000000000
     27683       243  POPE      H8Y            30.5836562519       -4.2226349387       -9.6019584728  MEMB      243             0.0000000000
     27684       243  POPE      C39            32.4296761320       -3.0332312466       -8.8541712048  MEMB      243             0.0000000000
     27685       243  POPE      H9X            31.8958383614       -2.0744905426       -9.0278223589  MEMB      243             0.0000000000
     27686       243  POPE      H9Y            33.1269596252       -3.1717361808       -9.7079467913  MEMB      243             0.0000000000
     27687       243  POPE      C310           33.2386874057       -3.0672648057       -7.5153598552  MEMB      243             0.0000000000
     27688       243  POPE      H10X           33.6823900534       -4.0187316413       -7.1518217553  MEMB      243             0.0000000000
     27689       243  POPE      H10Y           32.4950570072       -2.7024651633       -6.7749164393  MEMB      243             0.0000000000
     27690       243  POPE      C311           34.4034040853       -2.0830942927       -7.6022415392  MEMB      243             0.0000000000
     27691       243  POPE      H11X           34.1639894701       -1.0713809251       -7.9939523914  MEMB      243             0.0000000000
     27692       243  POPE      H11Y           35.1154996803       -2.5213024442       -8.3338252300  MEMB      243             0.0000000000
     27693       243  POPE      C312           35.1791195392       -2.0477703529       -6.2455263062  MEMB      243             0.0000000000
     27694       243  POPE      H12X           36.1257856023       -1.5010216654       -6.4435416074  MEMB      243             0.0000000000
     27695       243  POPE      H12Y           35.4092020880       -3.0830862183       -5.9146129568  MEMB      243             0.0000000000
     27696       243  POPE      C313           34.3178975001       -1.5075365253       -5.0100931356  MEMB      243             0.0000000000
     27697       243  POPE      H13X           34.6408773865       -2.1184132736       -4.1401311786  MEMB      243             0.0000000000
     27698       243  POPE      H13Y           33.2902678382       -1.8802809394       -5.2084859694  MEMB      243             0.0000000000
     27699       243  POPE      C314           34.6055744070       -0.0584612022       -4.5547904472  MEMB      243             0.0000000000
     27700       243  POPE      H14X           35.6917037165        0.1583308871       -4.6422261530  MEMB      243             0.0000000000
     27701       243  POPE      H14Y           34.3691949479        0.0921788960       -3.4797313266  MEMB      243             0.0000000000
     27702       243  POPE      C315           33.6991072956        1.0255852671       -5.2105234479  MEMB      243             0.0000000000
     27703       243  POPE      H15X           32.6439953185        0.7664446302       -4.9783474971  MEMB      243             0.0000000000
     27704       243  POPE      H15Y           33.9077719457        1.1575613469       -6.2937420048  MEMB      243             0.0000000000
     27705       243  POPE      C316           34.0218471839        2.3394775321       -4.5071627876  MEMB      243             0.0000000000
     27706       243  POPE      H16X           35.1290030647        2.4235930746       -4.5452665991  MEMB      243             0.0000000000
     27707       243  POPE      H16Y           33.6844021024        2.3831899486       -3.4495512393  MEMB      243             0.0000000000
     27708       243  POPE      H16Z           33.5916754023        3.1861656073       -5.0836969629  MEMB      243             0.0000000000
     27709       244  POPE      N              23.8192307755       25.7866575191      -20.9774060659  MEMB      244             0.0000000000
     27710       244  POPE      HN1            24.6561362143       26.3769216926      -21.1584518769  MEMB      244             0.0000000000
     27711       244  POPE      HN2            23.6648235549       25.1860371474      -21.8122794506  MEMB      244             0.0000000000
     27712       244  POPE      HN3            23.0770985786       26.5147947294      -20.9517949707  MEMB      244             0.0000000000
     27713       244  POPE      C12            23.9683663735       24.8694876167      -19.8090080506  MEMB      244             0.0000000000
     27714       244  POPE      H12A           24.6817434667       24.1311830520      -20.2336496775  MEMB      244             0.0000000000
     27715       244  POPE      H12B           23.0194569705       24.3452110644      -19.5660550955  MEMB      244             0.0000000000
     27716       244  POPE      C11            24.3278336230       25.6123638802      -18.5048334779  MEMB      244             0.0000000000
     27717       244  POPE      H11A           24.4705731721       24.7897318686      -17.7718784626  MEMB      244             0.0000000000
     27718       244  POPE      H11B           23.4900553295       26.2580296631      -18.1648859262  MEMB      244             0.0000000000
     27719       244  POPE      P              26.9538925209       25.4464482812      -18.6507846654  MEMB      244             0.0000000000
     27720       244  POPE      O13            28.1417113159       26.0953351100      -19.2852832350  MEMB      244             0.0000000000
     27721       244  POPE      O14            26.7040665063       24.0027150564      -18.9926460204  MEMB      244             0.0000000000
     27722       244  POPE      O11            27.2359320172       25.5566710004      -17.0469932316  MEMB      244             0.0000000000
     27723       244  POPE      O12            25.5632148447       26.2822495587      -18.7330452764  MEMB      244             0.0000000000
     27724       244  POPE      C1             26.5661731982       26.4990587352      -16.2681546757  MEMB      244             0.0000000000
     27725       244  POPE      HA             25.4856396189       26.4851176528      -16.5261737623  MEMB      244             0.0000000000
     27726       244  POPE      HB             27.0073755753       27.4937779621      -16.4921974204  MEMB      244             0.0000000000
     27727       244  POPE      C2             26.8317119154       26.1475818807      -14.7716594236  MEMB      244             0.0000000000
     27728       244  POPE      HS             26.1998444091       26.8653005729      -14.2060231426  MEMB      244             0.0000000000
     27729       244  POPE      O21            28.2124845290       26.3979061422      -14.5375471778  MEMB      244             0.0000000000
     27730       244  POPE      C21            28.5500393826       27.6253414042      -14.3174974936  MEMB      244             0.0000000000
     27731       244  POPE      O22            27.8157313436       28.6175017143      -14.4002384100  MEMB      244             0.0000000000
     27732       244  POPE      C22            30.0126211119       27.6099332569      -13.8092995791  MEMB      244             0.0000000000
     27733       244  POPE      H2R            30.6853051799       28.3385927312      -14.3101716415  MEMB      244             0.0000000000
     27734       244  POPE      H2S            30.4102783248       26.5907280043      -14.0027172550  MEMB      244             0.0000000000
     27735       244  POPE      C3             26.4466474813       24.6889375762      -14.5428596494  MEMB      244             0.0000000000
     27736       244  POPE      HX             27.2191502514       24.0167997620      -14.9738946234  MEMB      244             0.0000000000
     27737       244  POPE      HY             25.5719109434       24.5450892897      -15.2125346298  MEMB      244             0.0000000000
     27738       244  POPE      O31            26.2693165706       24.3415098768      -13.1703806967  MEMB      244             0.0000000000
     27739       244  POPE      C31            25.0731824248       23.9321646712      -12.7768648850  MEMB      244             0.0000000000
     27740       244  POPE      O32            24.1445665034       23.6121782061      -13.5123897866  MEMB      244             0.0000000000
     27741       244  POPE      C32            25.0016620838       23.9279930708      -11.2496009489  MEMB      244             0.0000000000
     27742       244  POPE      H2X            25.7630526780       23.2539999747      -10.8020084309  MEMB      244             0.0000000000
     27743       244  POPE      H2Y            23.9439682658       23.6242880496      -11.0967344510  MEMB      244             0.0000000000
     27744       244  POPE      C23            30.0147593664       27.9446075150      -12.3251155228  MEMB      244             0.0000000000
     27745       244  POPE      H3R            29.6232632302       28.9535716289      -12.0740320489  MEMB      244             0.0000000000
     27746       244  POPE      H3S            31.0847725203       28.0089684841      -12.0331388918  MEMB      244             0.0000000000
     27747       244  POPE      C24            29.4045081708       26.8519277340      -11.3925397043  MEMB      244             0.0000000000
     27748       244  POPE      H4R            29.5302083621       25.8318827399      -11.8144735707  MEMB      244             0.0000000000
     27749       244  POPE      H4S            28.3347241085       27.1398797603      -11.4760055492  MEMB      244             0.0000000000
     27750       244  POPE      C25            29.9613839243       26.8869887712       -9.9608412600  MEMB      244             0.0000000000
     27751       244  POPE      H5R            29.7908945454       27.8972535527       -9.5311682207  MEMB      244             0.0000000000
     27752       244  POPE      H5S            31.0669679704       26.7775961275       -9.9546606283  MEMB      244             0.0000000000
     27753       244  POPE      C26            29.3302609046       25.8362929028       -8.9855188778  MEMB      244             0.0000000000
     27754       244  POPE      H6R            29.4929179855       24.8352202226       -9.4390790169  MEMB      244             0.0000000000
     27755       244  POPE      H6S            28.2266099066       25.9408076766       -8.9123606363  MEMB      244             0.0000000000
     27756       244  POPE      C27            29.8745032201       25.8112919658       -7.5315733783  MEMB      244             0.0000000000
     27757       244  POPE      H7R            30.9843520025       25.7905605340       -7.4854512042  MEMB      244             0.0000000000
     27758       244  POPE      H7S            29.4938114010       24.8954001128       -7.0310370388  MEMB      244             0.0000000000
     27759       244  POPE      C28            29.4041016525       27.0034792090       -6.7126625449  MEMB      244             0.0000000000
     27760       244  POPE      H8R            28.3144435567       27.0756052477       -6.9170260480  MEMB      244             0.0000000000
     27761       244  POPE      H8S            29.7807131430       27.8908768851       -7.2649404496  MEMB      244             0.0000000000
     27762       244  POPE      C29            29.8386792574       27.2000790867       -5.2833510684  MEMB      244             0.0000000000
     27763       244  POPE      H91            30.7707030224       27.7287442746       -5.0346667034  MEMB      244             0.0000000000
     27764       244  POPE      C210           29.0580676913       26.8668224832       -4.2086804119  MEMB      244             0.0000000000
     27765       244  POPE      H101           29.3834991843       27.2242434322       -3.2205788530  MEMB      244             0.0000000000
     27766       244  POPE      C211           27.7069998569       26.2117546475       -4.2254719559  MEMB      244             0.0000000000
     27767       244  POPE      H11R           27.6946151857       25.1023733943       -4.2841316128  MEMB      244             0.0000000000
     27768       244  POPE      H11S           27.0693226892       26.6984319276       -4.9941292008  MEMB      244             0.0000000000
     27769       244  POPE      C212           26.8223100745       26.4148479000       -2.9362352677  MEMB      244             0.0000000000
     27770       244  POPE      H12R           25.8896724579       25.9374169806       -3.3057864025  MEMB      244             0.0000000000
     27771       244  POPE      H12S           26.7026214985       27.5168772273       -2.8618933196  MEMB      244             0.0000000000
     27772       244  POPE      C213           27.2369909650       25.5648279926       -1.7057407196  MEMB      244             0.0000000000
     27773       244  POPE      H13R           28.2309102391       25.9644273901       -1.4111801557  MEMB      244             0.0000000000
     27774       244  POPE      H13S           27.5349465967       24.5185057623       -1.9310255003  MEMB      244             0.0000000000
     27775       244  POPE      C214           26.3148799981       25.6049497921       -0.4356336518  MEMB      244             0.0000000000
     27776       244  POPE      H14R           25.2659246187       25.4713368659       -0.7764582380  MEMB      244             0.0000000000
     27777       244  POPE      H14S           26.2384882010       26.6432485463       -0.0477927363  MEMB      244             0.0000000000
     27778       244  POPE      C215           26.7922114539       24.6388032935        0.5844457136  MEMB      244             0.0000000000
     27779       244  POPE      H15R           27.7925997966       24.9305641271        0.9696972627  MEMB      244             0.0000000000
     27780       244  POPE      H15S           27.0166254420       23.6897131482        0.0522924885  MEMB      244             0.0000000000
     27781       244  POPE      C216           25.8542679067       24.4031884699        1.8272387807  MEMB      244             0.0000000000
     27782       244  POPE      H16R           25.7711244520       25.3552371219        2.3938171272  MEMB      244             0.0000000000
     27783       244  POPE      H16S           26.3979816060       23.7124999559        2.5066836418  MEMB      244             0.0000000000
     27784       244  POPE      C217           24.4461258336       23.6965729577        1.4830446834  MEMB      244             0.0000000000
     27785       244  POPE      H17R           24.6003116445       22.5970561594        1.4429140362  MEMB      244             0.0000000000
     27786       244  POPE      H17S           24.0844035150       24.1632987061        0.5419572726  MEMB      244             0.0000000000
     27787       244  POPE      C218           23.3390934108       24.0747876233        2.5641509940  MEMB      244             0.0000000000
     27788       244  POPE      H18R           22.5138238826       23.3903727490        2.2728994345  MEMB      244             0.0000000000
     27789       244  POPE      H18S           22.9286573507       25.1035119113        2.4770347333  MEMB      244             0.0000000000
     27790       244  POPE      H18T           23.6019146805       23.9457866144        3.6358810387  MEMB      244             0.0000000000
     27791       244  POPE      C33            25.1654737853       25.3710049112      -10.7692805706  MEMB      244             0.0000000000
     27792       244  POPE      H3X            24.2167540753       25.9012462071      -10.9997071817  MEMB      244             0.0000000000
     27793       244  POPE      H3Y            26.0357624105       25.7640554321      -11.3371098736  MEMB      244             0.0000000000
     27794       244  POPE      C34            25.4437290156       25.5464035607       -9.2920117984  MEMB      244             0.0000000000
     27795       244  POPE      H4X            25.8250162768       26.5761244981       -9.1228490220  MEMB      244             0.0000000000
     27796       244  POPE      H4Y            26.2040179312       24.7638614272       -9.0824650815  MEMB      244             0.0000000000
     27797       244  POPE      C35            24.2676934354       25.3078932081       -8.2398216550  MEMB      244             0.0000000000
     27798       244  POPE      H5X            23.5749606796       24.4722561387       -8.4767873820  MEMB      244             0.0000000000
     27799       244  POPE      H5Y            23.6875915169       26.2385204765       -8.4179665600  MEMB      244             0.0000000000
     27800       244  POPE      C36            24.7725087124       25.1610995787       -6.8038198205  MEMB      244             0.0000000000
     27801       244  POPE      H6X            24.1713568916       25.8378953911       -6.1597042405  MEMB      244             0.0000000000
     27802       244  POPE      H6Y            25.8577026242       25.3766388239       -6.7027356696  MEMB      244             0.0000000000
     27803       244  POPE      C37            24.5141986448       23.7088349200       -6.2531553985  MEMB      244             0.0000000000
     27804       244  POPE      H7X            23.4262008193       23.5196971147       -6.1314642944  MEMB      244             0.0000000000
     27805       244  POPE      H7Y            24.8853921691       23.7512833540       -5.2068598098  MEMB      244             0.0000000000
     27806       244  POPE      C38            25.1363688336       22.4428430596       -6.8477665383  MEMB      244             0.0000000000
     27807       244  POPE      H8X            24.7129208243       22.2430403524       -7.8552842751  MEMB      244             0.0000000000
     27808       244  POPE      H8Y            24.8331493243       21.5607434941       -6.2442111460  MEMB      244             0.0000000000
     27809       244  POPE      C39            26.7122083299       22.4117397860       -6.8376796226  MEMB      244             0.0000000000
     27810       244  POPE      H9X            27.0476898425       23.4169921668       -7.1712071732  MEMB      244             0.0000000000
     27811       244  POPE      H9Y            26.9017333794       21.6768575386       -7.6490666615  MEMB      244             0.0000000000
     27812       244  POPE      C310           27.2951086700       22.1461759015       -5.4072939820  MEMB      244             0.0000000000
     27813       244  POPE      H10X           26.8459666514       21.2693379413       -4.8937301590  MEMB      244             0.0000000000
     27814       244  POPE      H10Y           26.8466305406       22.9771842188       -4.8219618133  MEMB      244             0.0000000000
     27815       244  POPE      C311           28.8243632613       22.1880179627       -5.3033156537  MEMB      244             0.0000000000
     27816       244  POPE      H11X           29.1800588317       22.7967863492       -6.1619213037  MEMB      244             0.0000000000
     27817       244  POPE      H11Y           29.2168690522       21.1805814358       -5.5589165277  MEMB      244             0.0000000000
     27818       244  POPE      C312           29.6307729027       22.5927389375       -4.0562985656  MEMB      244             0.0000000000
     27819       244  POPE      H12X           29.1441016366       23.4816559002       -3.6009974377  MEMB      244             0.0000000000
     27820       244  POPE      H12Y           30.6931330719       22.7933074064       -4.3121976082  MEMB      244             0.0000000000
     27821       244  POPE      C313           29.6465374523       21.5407544457       -2.8774424141  MEMB      244             0.0000000000
     27822       244  POPE      H13X           30.6784503168       21.3204171982       -2.5296955424  MEMB      244             0.0000000000
     27823       244  POPE      H13Y           29.3476135712       20.6159852047       -3.4157438412  MEMB      244             0.0000000000
     27824       244  POPE      C314           28.9278944841       21.9016236079       -1.5628404056  MEMB      244             0.0000000000
     27825       244  POPE      H14X           27.8516626623       22.1277062783       -1.7207416522  MEMB      244             0.0000000000
     27826       244  POPE      H14Y           29.2430003295       22.8874408647       -1.1588676557  MEMB      244             0.0000000000
     27827       244  POPE      C315           29.0819889139       20.8251000176       -0.5518808718  MEMB      244             0.0000000000
     27828       244  POPE      H15X           28.8155502934       21.1437313645        0.4785589652  MEMB      244             0.0000000000
     27829       244  POPE      H15Y           30.1170886820       20.4598213246       -0.3802380766  MEMB      244             0.0000000000
     27830       244  POPE      C316           28.3658872497       19.5504054872       -0.9300866566  MEMB      244             0.0000000000
     27831       244  POPE      H16X           28.8659577470       18.9901506531       -1.7488447754  MEMB      244             0.0000000000
     27832       244  POPE      H16Y           27.3603811223       19.8154292086       -1.3212898195  MEMB      244             0.0000000000
     27833       244  POPE      H16Z           28.0483985707       19.0155375986       -0.0095221878  MEMB      244             0.0000000000
     27834       245  POPE      N              16.0070187125      -34.7715209773      -18.6622615607  MEMB      245             0.0000000000
     27835       245  POPE      HN1            16.7280839906      -35.1657401280      -18.0248793241  MEMB      245             0.0000000000
     27836       245  POPE      HN2            15.4646558731      -35.5747785242      -19.0393822856  MEMB      245             0.0000000000
     27837       245  POPE      HN3            16.5158781962      -34.3205925426      -19.4492339214  MEMB      245             0.0000000000
     27838       245  POPE      C12            15.0641230735      -33.7542300263      -18.0861486088  MEMB      245             0.0000000000
     27839       245  POPE      H12A           14.5357464704      -34.2442328387      -17.2405503759  MEMB      245             0.0000000000
     27840       245  POPE      H12B           14.3489279200      -33.3626327002      -18.8407798402  MEMB      245             0.0000000000
     27841       245  POPE      C11            15.7638547738      -32.4733242074      -17.7161856234  MEMB      245             0.0000000000
     27842       245  POPE      H11A           16.6461654957      -32.5334903134      -17.0437059880  MEMB      245             0.0000000000
     27843       245  POPE      H11B           15.1236471035      -31.7541027933      -17.1619511740  MEMB      245             0.0000000000
     27844       245  POPE      P              17.4693523755      -31.5646826282      -19.5363539096  MEMB      245             0.0000000000
     27845       245  POPE      O13            17.3639739794      -30.4854672285      -20.5646680057  MEMB      245             0.0000000000
     27846       245  POPE      O14            17.9161350306      -32.8347916904      -20.1392478881  MEMB      245             0.0000000000
     27847       245  POPE      O11            18.3906358085      -31.3795289528      -18.3456562789  MEMB      245             0.0000000000
     27848       245  POPE      O12            16.0291398481      -31.8207926916      -18.9494781220  MEMB      245             0.0000000000
     27849       245  POPE      C1             19.4656882525      -30.5178218692      -18.3188941596  MEMB      245             0.0000000000
     27850       245  POPE      HA             19.2825859293      -29.6074190311      -18.9287803257  MEMB      245             0.0000000000
     27851       245  POPE      HB             20.3325575987      -31.0787945161      -18.7289777334  MEMB      245             0.0000000000
     27852       245  POPE      C2             19.8024553911      -29.9763908254      -16.8633186728  MEMB      245             0.0000000000
     27853       245  POPE      HS             20.9110688408      -29.9213134783      -16.8157435755  MEMB      245             0.0000000000
     27854       245  POPE      O21            19.3254469703      -30.9356860675      -15.8570836849  MEMB      245             0.0000000000
     27855       245  POPE      C21            20.0184879866      -32.0834176135      -15.7318529171  MEMB      245             0.0000000000
     27856       245  POPE      O22            20.9399549613      -32.3859720816      -16.4042543833  MEMB      245             0.0000000000
     27857       245  POPE      C22            19.4948146210      -32.9656695916      -14.6026452349  MEMB      245             0.0000000000
     27858       245  POPE      H2R            19.7364510115      -32.3893890690      -13.6840410506  MEMB      245             0.0000000000
     27859       245  POPE      H2S            19.9796322689      -33.9644484531      -14.6440411005  MEMB      245             0.0000000000
     27860       245  POPE      C3             19.2729812509      -28.5995868693      -16.5198798724  MEMB      245             0.0000000000
     27861       245  POPE      HX             19.7870444939      -27.8565395621      -17.1663634560  MEMB      245             0.0000000000
     27862       245  POPE      HY             19.5212330084      -28.2521537615      -15.4942182314  MEMB      245             0.0000000000
     27863       245  POPE      O31            17.8218692380      -28.5205156030      -16.6800312012  MEMB      245             0.0000000000
     27864       245  POPE      C31            16.9650028858      -28.4032814482      -15.5712227266  MEMB      245             0.0000000000
     27865       245  POPE      O32            17.3428653767      -28.2345110336      -14.4196516458  MEMB      245             0.0000000000
     27866       245  POPE      C32            15.5744670411      -28.7242042177      -16.0269434878  MEMB      245             0.0000000000
     27867       245  POPE      H2X            15.5567490638      -29.6548564127      -16.6334858847  MEMB      245             0.0000000000
     27868       245  POPE      H2Y            15.2812901714      -27.8369387744      -16.6278830600  MEMB      245             0.0000000000
     27869       245  POPE      C23            17.9249939749      -33.0916027007      -14.5841689379  MEMB      245             0.0000000000
     27870       245  POPE      H3R            17.6281446934      -33.5764747145      -15.5386848542  MEMB      245             0.0000000000
     27871       245  POPE      H3S            17.4997114909      -32.0658904905      -14.5471507909  MEMB      245             0.0000000000
     27872       245  POPE      C24            17.3790811902      -33.8556146070      -13.3919296782  MEMB      245             0.0000000000
     27873       245  POPE      H4R            16.2716780796      -33.8732812420      -13.3043668915  MEMB      245             0.0000000000
     27874       245  POPE      H4S            17.7555606666      -33.3106197118      -12.4999853880  MEMB      245             0.0000000000
     27875       245  POPE      C25            17.8216246203      -35.2984397349      -13.2308199160  MEMB      245             0.0000000000
     27876       245  POPE      H5R            18.9305986300      -35.3606747231      -13.2558095425  MEMB      245             0.0000000000
     27877       245  POPE      H5S            17.5479519666      -35.8925023517      -14.1288811299  MEMB      245             0.0000000000
     27878       245  POPE      C26            17.2095487937      -36.1569155404      -12.1981890236  MEMB      245             0.0000000000
     27879       245  POPE      H6R            17.5082548492      -37.2072743714      -12.4027429342  MEMB      245             0.0000000000
     27880       245  POPE      H6S            16.1120683140      -35.9873687235      -12.2315273280  MEMB      245             0.0000000000
     27881       245  POPE      C27            17.7369052127      -35.8789724437      -10.7638837579  MEMB      245             0.0000000000
     27882       245  POPE      H7R            17.7191977893      -34.7901323627      -10.5438048799  MEMB      245             0.0000000000
     27883       245  POPE      H7S            18.8433317567      -35.9578381209      -10.8265047500  MEMB      245             0.0000000000
     27884       245  POPE      C28            17.1667012238      -36.7715792082       -9.6542194614  MEMB      245             0.0000000000
     27885       245  POPE      H8R            18.0098475593      -36.8463748397       -8.9346140655  MEMB      245             0.0000000000
     27886       245  POPE      H8S            17.0950428034      -37.8003396046      -10.0675442924  MEMB      245             0.0000000000
     27887       245  POPE      C29            15.8230842635      -36.2757849582       -9.1273742986  MEMB      245             0.0000000000
     27888       245  POPE      H91            14.9017800384      -36.5934788742       -9.6375400108  MEMB      245             0.0000000000
     27889       245  POPE      C210           15.6529813912      -35.4879643256       -8.0549989138  MEMB      245             0.0000000000
     27890       245  POPE      H101           14.6017734450      -35.2021212491       -7.9025017930  MEMB      245             0.0000000000
     27891       245  POPE      C211           16.7550629702      -34.8858749577       -7.1679018271  MEMB      245             0.0000000000
     27892       245  POPE      H11R           16.4902496917      -33.8505899091       -6.8639610426  MEMB      245             0.0000000000
     27893       245  POPE      H11S           17.7736911039      -34.8051315165       -7.6040186369  MEMB      245             0.0000000000
     27894       245  POPE      C212           16.7627210766      -35.5871848602       -5.8633919242  MEMB      245             0.0000000000
     27895       245  POPE      H12R           17.6312522419      -35.1758099833       -5.3059469614  MEMB      245             0.0000000000
     27896       245  POPE      H12S           17.0338796440      -36.6545997803       -6.0097451649  MEMB      245             0.0000000000
     27897       245  POPE      C213           15.4472835274      -35.4798918879       -5.0610343839  MEMB      245             0.0000000000
     27898       245  POPE      H13R           14.6485857773      -36.0619921855       -5.5685398236  MEMB      245             0.0000000000
     27899       245  POPE      H13S           15.0873330719      -34.4292079832       -5.0896744769  MEMB      245             0.0000000000
     27900       245  POPE      C214           15.6897460855      -35.8607192814       -3.6311431691  MEMB      245             0.0000000000
     27901       245  POPE      H14R           16.6363538642      -35.4014009581       -3.2743783056  MEMB      245             0.0000000000
     27902       245  POPE      H14S           15.8202434598      -36.9612862225       -3.5534024634  MEMB      245             0.0000000000
     27903       245  POPE      C215           14.5734255416      -35.5152601273       -2.6684952714  MEMB      245             0.0000000000
     27904       245  POPE      H15R           14.7339734106      -36.2651016764       -1.8645795806  MEMB      245             0.0000000000
     27905       245  POPE      H15S           13.5711363707      -35.6621654076       -3.1247380226  MEMB      245             0.0000000000
     27906       245  POPE      C216           14.7005154156      -34.0405346010       -2.2628058800  MEMB      245             0.0000000000
     27907       245  POPE      H16R           14.5379030875      -33.3732871126       -3.1361089847  MEMB      245             0.0000000000
     27908       245  POPE      H16S           15.6596954643      -33.8284458109       -1.7438512418  MEMB      245             0.0000000000
     27909       245  POPE      C217           13.6039307052      -33.5036671707       -1.2665931346  MEMB      245             0.0000000000
     27910       245  POPE      H17R           13.7822365437      -34.0852747473       -0.3369375706  MEMB      245             0.0000000000
     27911       245  POPE      H17S           12.6285849411      -33.8628911569       -1.6589966417  MEMB      245             0.0000000000
     27912       245  POPE      C218           13.6369192400      -32.0343994793       -1.0770381168  MEMB      245             0.0000000000
     27913       245  POPE      H18R           14.6633518614      -31.7408485356       -0.7694911643  MEMB      245             0.0000000000
     27914       245  POPE      H18S           12.9027426446      -31.6663187825       -0.3288247013  MEMB      245             0.0000000000
     27915       245  POPE      H18T           13.4686004518      -31.5804590314       -2.0770007963  MEMB      245             0.0000000000
     27916       245  POPE      C33            14.6760320100      -28.8094446423      -14.7595467296  MEMB      245             0.0000000000
     27917       245  POPE      H3X            13.6208069690      -28.6842009977      -15.0837922149  MEMB      245             0.0000000000
     27918       245  POPE      H3Y            14.9135548654      -27.9216715956      -14.1352368850  MEMB      245             0.0000000000
     27919       245  POPE      C34            14.7291776733      -30.1502080324      -14.0046297042  MEMB      245             0.0000000000
     27920       245  POPE      H4X            15.7064886574      -30.3778119009      -13.5277854274  MEMB      245             0.0000000000
     27921       245  POPE      H4Y            14.4945649815      -30.9368381598      -14.7532892776  MEMB      245             0.0000000000
     27922       245  POPE      C35            13.6843104303      -30.1161882001      -12.8792761779  MEMB      245             0.0000000000
     27923       245  POPE      H5X            13.6066315248      -31.1408946218      -12.4570628800  MEMB      245             0.0000000000
     27924       245  POPE      H5Y            12.6485140321      -29.8993858204      -13.2175707019  MEMB      245             0.0000000000
     27925       245  POPE      C36            14.0935436421      -29.2616911973      -11.7237975785  MEMB      245             0.0000000000
     27926       245  POPE      H6X            13.9965088251      -28.1701815241      -11.9068603783  MEMB      245             0.0000000000
     27927       245  POPE      H6Y            15.1376861364      -29.4469749878      -11.3925014400  MEMB      245             0.0000000000
     27928       245  POPE      C37            13.3627613989      -29.5200192467      -10.3393833042  MEMB      245             0.0000000000
     27929       245  POPE      H7X            12.2536451834      -29.4897974448      -10.3965598915  MEMB      245             0.0000000000
     27930       245  POPE      H7Y            13.6658943414      -28.6028797381       -9.7904878970  MEMB      245             0.0000000000
     27931       245  POPE      C38            13.8797515840      -30.6605639356       -9.5011223894  MEMB      245             0.0000000000
     27932       245  POPE      H8X            14.9284082794      -30.3992948553       -9.2434823322  MEMB      245             0.0000000000
     27933       245  POPE      H8Y            13.9348161701      -31.6221883647      -10.0548073880  MEMB      245             0.0000000000
     27934       245  POPE      C39            13.1823317363      -30.8383816436       -8.1736965767  MEMB      245             0.0000000000
     27935       245  POPE      H9X            13.3787799172      -31.8301605260       -7.7131500591  MEMB      245             0.0000000000
     27936       245  POPE      H9Y            12.1451583673      -31.0455631676       -8.5137966876  MEMB      245             0.0000000000
     27937       245  POPE      C310           13.1075164591      -29.6211044420       -7.2518038011  MEMB      245             0.0000000000
     27938       245  POPE      H10X           12.0656073768      -29.3475868165       -6.9798932449  MEMB      245             0.0000000000
     27939       245  POPE      H10Y           13.6391455176      -28.7397134563       -7.6699436055  MEMB      245             0.0000000000
     27940       245  POPE      C311           13.8208297004      -29.8690425260       -5.9364586355  MEMB      245             0.0000000000
     27941       245  POPE      H11X           14.7797440989      -30.4120777714       -6.0775856920  MEMB      245             0.0000000000
     27942       245  POPE      H11Y           13.1156872223      -30.4981775975       -5.3522637979  MEMB      245             0.0000000000
     27943       245  POPE      C312           14.0641047650      -28.6763099988       -5.0489628342  MEMB      245             0.0000000000
     27944       245  POPE      H12X           13.0968022219      -28.1578476287       -4.8762078297  MEMB      245             0.0000000000
     27945       245  POPE      H12Y           14.6570055728      -27.9212630833       -5.6081532691  MEMB      245             0.0000000000
     27946       245  POPE      C313           14.5416357326      -28.9719463251       -3.6123953398  MEMB      245             0.0000000000
     27947       245  POPE      H13X           13.8784890362      -29.7672322285       -3.2098054478  MEMB      245             0.0000000000
     27948       245  POPE      H13Y           14.4433898200      -28.0349096725       -3.0236413569  MEMB      245             0.0000000000
     27949       245  POPE      C314           15.9174098987      -29.5135527040       -3.4903491757  MEMB      245             0.0000000000
     27950       245  POPE      H14X           16.5682123670      -28.9134331340       -4.1616422524  MEMB      245             0.0000000000
     27951       245  POPE      H14Y           15.8873148474      -30.6060796618       -3.6898490442  MEMB      245             0.0000000000
     27952       245  POPE      C315           16.4840448877      -29.2999245596       -2.0711717033  MEMB      245             0.0000000000
     27953       245  POPE      H15X           15.7121853264      -29.7328619575       -1.3995175317  MEMB      245             0.0000000000
     27954       245  POPE      H15Y           16.5524313721      -28.2132156091       -1.8504740694  MEMB      245             0.0000000000
     27955       245  POPE      C316           17.7794924848      -30.0111986599       -1.7426624626  MEMB      245             0.0000000000
     27956       245  POPE      H16X           17.7520391937      -31.0671320561       -2.0870064356  MEMB      245             0.0000000000
     27957       245  POPE      H16Y           18.0108206566      -30.1338774521       -0.6629611243  MEMB      245             0.0000000000
     27958       245  POPE      H16Z           18.6321596446      -29.4242433218       -2.1461015624  MEMB      245             0.0000000000
     27959       246  POPC      N              -8.5231330010       33.2268700044      -20.5656766282  MEMB      246             0.0000000000
     27960       246  POPC      C12            -8.2798663517       33.5454713981      -19.1248702045  MEMB      246             0.0000000000
     27961       246  POPC      H12A           -7.4924138300       34.2811027675      -19.0530018918  MEMB      246             0.0000000000
     27962       246  POPC      H12B           -7.9416144440       32.6566138664      -18.6130909650  MEMB      246             0.0000000000
     27963       246  POPC      C13            -9.2290956508       31.9268960922      -20.8846469217  MEMB      246             0.0000000000
     27964       246  POPC      H13A          -10.0121016034       31.7298752692      -20.1673710949  MEMB      246             0.0000000000
     27965       246  POPC      H13B           -9.5309961443       31.9077848083      -21.9214161118  MEMB      246             0.0000000000
     27966       246  POPC      H13C           -8.5192960979       31.1333254914      -20.7034548014  MEMB      246             0.0000000000
     27967       246  POPC      C14            -9.2781246273       34.3101009285      -21.2312329794  MEMB      246             0.0000000000
     27968       246  POPC      H14A           -9.3736200593       34.0840930567      -22.2829937530  MEMB      246             0.0000000000
     27969       246  POPC      H14B          -10.2491191660       34.5120424520      -20.8036942684  MEMB      246             0.0000000000
     27970       246  POPC      H14C           -8.8213880902       35.2886718034      -21.2174181007  MEMB      246             0.0000000000
     27971       246  POPC      C15            -7.1703848158       33.1792074365      -21.1846752974  MEMB      246             0.0000000000
     27972       246  POPC      H15A           -7.2601324834       32.4619567564      -21.9871070805  MEMB      246             0.0000000000
     27973       246  POPC      H15B           -6.5448981836       32.6269046054      -20.4990165571  MEMB      246             0.0000000000
     27974       246  POPC      H15C           -6.7794606247       34.1391535621      -21.4881248807  MEMB      246             0.0000000000
     27975       246  POPC      C11            -9.4890537798       34.2070852950      -18.2763076389  MEMB      246             0.0000000000
     27976       246  POPC      H11A           -9.4527033440       35.3025061597      -18.4581118897  MEMB      246             0.0000000000
     27977       246  POPC      H11B           -9.1563728324       33.8629537855      -17.2737020782  MEMB      246             0.0000000000
     27978       246  POPC      P             -11.7811903672       33.2620681355      -17.5175789311  MEMB      246             0.0000000000
     27979       246  POPC      O13           -11.2008445472       32.1437309454      -16.7952513859  MEMB      246             0.0000000000
     27980       246  POPC      O14           -13.1091998626       33.0424639098      -18.0713228670  MEMB      246             0.0000000000
     27981       246  POPC      O12           -10.7498526454       33.6465452566      -18.7368509818  MEMB      246             0.0000000000
     27982       246  POPC      O11           -11.7120712990       34.6128297004      -16.6115861902  MEMB      246             0.0000000000
     27983       246  POPC      C1            -12.3657214406       35.8318996552      -17.0168955156  MEMB      246             0.0000000000
     27984       246  POPC      HA            -13.3046214240       35.5662221084      -17.5481236580  MEMB      246             0.0000000000
     27985       246  POPC      HB            -11.7277681135       36.4562858339      -17.6783170762  MEMB      246             0.0000000000
     27986       246  POPC      C2            -12.7518702805       36.5165599403      -15.6427615948  MEMB      246             0.0000000000
     27987       246  POPC      HS            -13.3254791582       37.4095507157      -15.9711841679  MEMB      246             0.0000000000
     27988       246  POPC      O21           -11.6282745030       36.8534565148      -14.8773981230  MEMB      246             0.0000000000
     27989       246  POPC      C21           -10.7103398974       37.7409888611      -15.3286695805  MEMB      246             0.0000000000
     27990       246  POPC      O22           -10.7891500118       38.3864037793      -16.3455499923  MEMB      246             0.0000000000
     27991       246  POPC      C22            -9.7887357806       38.0106812269      -14.1639701421  MEMB      246             0.0000000000
     27992       246  POPC      H2R           -10.0527675576       38.9140529254      -13.5736077832  MEMB      246             0.0000000000
     27993       246  POPC      H2S            -8.8532793300       38.3760124795      -14.6391283604  MEMB      246             0.0000000000
     27994       246  POPC      C3            -13.6020152476       35.6233951005      -14.7136661110  MEMB      246             0.0000000000
     27995       246  POPC      HX            -14.5228600479       35.3877668381      -15.2888579401  MEMB      246             0.0000000000
     27996       246  POPC      HY            -13.8538516185       36.1953374186      -13.7950905066  MEMB      246             0.0000000000
     27997       246  POPC      O31           -12.9027123535       34.4904972125      -14.2637360315  MEMB      246             0.0000000000
     27998       246  POPC      C31           -13.7461276574       33.4829723417      -13.9293816835  MEMB      246             0.0000000000
     27999       246  POPC      O32           -14.9492987929       33.4569321553      -13.9973920932  MEMB      246             0.0000000000
     28000       246  POPC      C32           -12.8702790031       32.2838989910      -13.4930599543  MEMB      246             0.0000000000
     28001       246  POPC      H2X           -12.1261957714       32.1579244012      -14.3084075677  MEMB      246             0.0000000000
     28002       246  POPC      H2Y           -13.5548496069       31.4258339960      -13.3215694520  MEMB      246             0.0000000000
     28003       246  POPC      C23            -9.6440417765       36.7836289432      -13.2689839749  MEMB      246             0.0000000000
     28004       246  POPC      H3R            -9.3491923311       35.9827426743      -13.9802970994  MEMB      246             0.0000000000
     28005       246  POPC      H3S           -10.6397214302       36.5388453299      -12.8411708595  MEMB      246             0.0000000000
     28006       246  POPC      C24            -8.6078067602       36.9409159968      -12.1484765258  MEMB      246             0.0000000000
     28007       246  POPC      H4R            -8.9181047630       37.8896476428      -11.6606810867  MEMB      246             0.0000000000
     28008       246  POPC      H4S            -7.5706002744       37.0757238639      -12.5231097847  MEMB      246             0.0000000000
     28009       246  POPC      C25            -8.5726826640       35.7417269750      -11.2237105132  MEMB      246             0.0000000000
     28010       246  POPC      H5R            -8.3140020355       34.8372361672      -11.8147278859  MEMB      246             0.0000000000
     28011       246  POPC      H5S            -9.6215219289       35.4966628177      -10.9513126459  MEMB      246             0.0000000000
     28012       246  POPC      C26            -7.6788815072       35.9648983610      -10.0130971223  MEMB      246             0.0000000000
     28013       246  POPC      H6R            -8.0000490187       36.8406887078       -9.4096371796  MEMB      246             0.0000000000
     28014       246  POPC      H6S            -6.6285996823       36.1108754159      -10.3446385446  MEMB      246             0.0000000000
     28015       246  POPC      C27            -7.5582841854       34.7346670417       -9.0570645113  MEMB      246             0.0000000000
     28016       246  POPC      H7R            -6.5630703894       34.8033019651       -8.5680251072  MEMB      246             0.0000000000
     28017       246  POPC      H7S            -7.6643521304       33.8441573856       -9.7128566134  MEMB      246             0.0000000000
     28018       246  POPC      C28            -8.5718547065       34.7238983420       -7.9397412912  MEMB      246             0.0000000000
     28019       246  POPC      H8R            -8.5671054820       35.7597603964       -7.5381337623  MEMB      246             0.0000000000
     28020       246  POPC      H8S            -8.1164427535       34.0602784090       -7.1738890328  MEMB      246             0.0000000000
     28021       246  POPC      C29            -9.9689112900       34.2480357073       -8.4367804845  MEMB      246             0.0000000000
     28022       246  POPC      H91            -9.9126751560       33.2375113154       -8.8676838707  MEMB      246             0.0000000000
     28023       246  POPC      C210          -11.0874531975       34.9606633188       -8.4641568302  MEMB      246             0.0000000000
     28024       246  POPC      H101          -11.9792147004       34.5109593374       -8.9251648498  MEMB      246             0.0000000000
     28025       246  POPC      C211          -11.2355628390       36.3846518628       -8.0328770924  MEMB      246             0.0000000000
     28026       246  POPC      H11R          -11.8799114696       36.8898132972       -8.7838418000  MEMB      246             0.0000000000
     28027       246  POPC      H11S          -10.2406176219       36.8308677601       -8.2457066274  MEMB      246             0.0000000000
     28028       246  POPC      C212          -11.7609109738       36.7212382641       -6.6690894541  MEMB      246             0.0000000000
     28029       246  POPC      H12R          -12.3622597901       35.8777200049       -6.2676203697  MEMB      246             0.0000000000
     28030       246  POPC      H12S          -12.4887023947       37.5566697552       -6.5872682131  MEMB      246             0.0000000000
     28031       246  POPC      C213          -10.6048127566       36.9942146844       -5.6253831584  MEMB      246             0.0000000000
     28032       246  POPC      H13R          -10.1313601716       35.9988583034       -5.4859940119  MEMB      246             0.0000000000
     28033       246  POPC      H13S          -11.0898297279       37.3189710730       -4.6800716534  MEMB      246             0.0000000000
     28034       246  POPC      C214           -9.5674469061       38.0525320077       -6.1256232268  MEMB      246             0.0000000000
     28035       246  POPC      H14R          -10.1867072824       38.8769368703       -6.5393792924  MEMB      246             0.0000000000
     28036       246  POPC      H14S           -8.8234573604       37.6712432127       -6.8573472855  MEMB      246             0.0000000000
     28037       246  POPC      C215           -8.9284578482       38.7216853828       -4.9502827466  MEMB      246             0.0000000000
     28038       246  POPC      H15R           -9.7575733395       39.1671163220       -4.3599607058  MEMB      246             0.0000000000
     28039       246  POPC      H15S           -8.2020859585       39.5169113701       -5.2229005813  MEMB      246             0.0000000000
     28040       246  POPC      C216           -8.1846123730       37.6736926340       -4.0176928451  MEMB      246             0.0000000000
     28041       246  POPC      H16R           -7.6742128072       36.8881466863       -4.6149627319  MEMB      246             0.0000000000
     28042       246  POPC      H16S           -9.0100237825       37.1402288391       -3.4995877010  MEMB      246             0.0000000000
     28043       246  POPC      C217           -7.4169656484       38.6027180736       -3.0432502634  MEMB      246             0.0000000000
     28044       246  POPC      H17R           -8.2347125479       39.1439701181       -2.5210852412  MEMB      246             0.0000000000
     28045       246  POPC      H17S           -6.7821184740       39.3355673068       -3.5856730830  MEMB      246             0.0000000000
     28046       246  POPC      C218           -6.5687082763       37.7628335730       -2.0635511742  MEMB      246             0.0000000000
     28047       246  POPC      H18R           -6.2049573036       38.3156998244       -1.1711680482  MEMB      246             0.0000000000
     28048       246  POPC      H18S           -5.7181553926       37.3281253373       -2.6309207750  MEMB      246             0.0000000000
     28049       246  POPC      H18T           -7.1806597137       36.9025056586       -1.7176148424  MEMB      246             0.0000000000
     28050       246  POPC      C33           -12.1491211260       32.5736632590      -12.1859574295  MEMB      246             0.0000000000
     28051       246  POPC      H3X           -12.8078578196       32.6258889945      -11.2928394537  MEMB      246             0.0000000000
     28052       246  POPC      H3Y           -11.6350202721       33.5577280312      -12.2264262419  MEMB      246             0.0000000000
     28053       246  POPC      C34           -11.2074055824       31.4309143494      -12.0111794451  MEMB      246             0.0000000000
     28054       246  POPC      H4X           -10.4782032809       31.3523390287      -12.8456917222  MEMB      246             0.0000000000
     28055       246  POPC      H4Y           -11.8842718986       30.5515822645      -11.9568831336  MEMB      246             0.0000000000
     28056       246  POPC      C35           -10.4386434199       31.4245861259      -10.7085724028  MEMB      246             0.0000000000
     28057       246  POPC      H5X           -11.1938645112       31.7558405751       -9.9641040388  MEMB      246             0.0000000000
     28058       246  POPC      H5Y            -9.6108787629       32.1655952026      -10.7142406751  MEMB      246             0.0000000000
     28059       246  POPC      C36            -9.9947046390       29.9097524080      -10.3955860110  MEMB      246             0.0000000000
     28060       246  POPC      H6X            -9.8415211782       29.3223703220      -11.3260901903  MEMB      246             0.0000000000
     28061       246  POPC      H6Y           -10.7582177876       29.3298986176       -9.8342136717  MEMB      246             0.0000000000
     28062       246  POPC      C37            -8.8035598727       29.8037256306       -9.3904216269  MEMB      246             0.0000000000
     28063       246  POPC      H7X            -7.9391542656       30.2650730166       -9.9141416171  MEMB      246             0.0000000000
     28064       246  POPC      H7Y            -8.5541248988       28.7372456612       -9.2040771990  MEMB      246             0.0000000000
     28065       246  POPC      C38            -8.9669691892       30.4810622938       -8.0513441528  MEMB      246             0.0000000000
     28066       246  POPC      H8X            -9.4207840418       31.4793235831       -8.2298033077  MEMB      246             0.0000000000
     28067       246  POPC      H8Y            -8.1055017679       30.6180317661       -7.3632784578  MEMB      246             0.0000000000
     28068       246  POPC      C39            -9.9345806200       29.6541921332       -7.2544293937  MEMB      246             0.0000000000
     28069       246  POPC      H9X            -9.3171124326       28.7944277031       -6.9169993914  MEMB      246             0.0000000000
     28070       246  POPC      H9Y           -10.8002923917       29.2682254728       -7.8339925692  MEMB      246             0.0000000000
     28071       246  POPC      C310          -10.4589262539       30.2608444068       -5.9643446319  MEMB      246             0.0000000000
     28072       246  POPC      H10X           -9.5798310086       30.4215840496       -5.3042877001  MEMB      246             0.0000000000
     28073       246  POPC      H10Y          -11.0796898261       29.4826809437       -5.4709532826  MEMB      246             0.0000000000
     28074       246  POPC      C311          -11.4292357253       31.5275666846       -6.1149398952  MEMB      246             0.0000000000
     28075       246  POPC      H11X          -12.1131310886       31.1930542453       -6.9240807112  MEMB      246             0.0000000000
     28076       246  POPC      H11Y          -10.8461438924       32.4616216455       -6.2628127830  MEMB      246             0.0000000000
     28077       246  POPC      C312          -12.2863319922       31.8870131861       -4.8368076745  MEMB      246             0.0000000000
     28078       246  POPC      H12X          -11.5321789306       31.9330900328       -4.0222827778  MEMB      246             0.0000000000
     28079       246  POPC      H12Y          -13.0239415221       31.0862528808       -4.6153657737  MEMB      246             0.0000000000
     28080       246  POPC      C313          -12.8455674754       33.2916736526       -4.8498446476  MEMB      246             0.0000000000
     28081       246  POPC      H13X          -13.6752929751       33.2357806741       -5.5865611867  MEMB      246             0.0000000000
     28082       246  POPC      H13Y          -12.0093388501       33.9167549190       -5.2297340566  MEMB      246             0.0000000000
     28083       246  POPC      C314          -13.2720411620       33.8656226225       -3.4897042596  MEMB      246             0.0000000000
     28084       246  POPC      H14X          -12.3753060456       33.9124635092       -2.8354925284  MEMB      246             0.0000000000
     28085       246  POPC      H14Y          -13.9316891840       33.2016777925       -2.8910697517  MEMB      246             0.0000000000
     28086       246  POPC      C315          -13.6733220226       35.4154424157       -3.4628656112  MEMB      246             0.0000000000
     28087       246  POPC      H15X          -14.5185402699       35.5648317943       -4.1682803228  MEMB      246             0.0000000000
     28088       246  POPC      H15Y          -12.7678688921       36.0009247126       -3.7306075601  MEMB      246             0.0000000000
     28089       246  POPC      C316          -14.2699071720       35.9363937254       -2.1490176216  MEMB      246             0.0000000000
     28090       246  POPC      H16X          -13.6009803771       35.7573397134       -1.2802262637  MEMB      246             0.0000000000
     28091       246  POPC      H16Y          -15.2921466720       35.5446594707       -1.9595658790  MEMB      246             0.0000000000
     28092       246  POPC      H16Z          -14.4101535603       37.0383537196       -2.1306811125  MEMB      246             0.0000000000
     28093       247  POPC      N              21.4608688813      -27.3801529359      -18.3900652349  MEMB      247             0.0000000000
     28094       247  POPC      C12            21.9296442053      -27.8136534119      -19.7958507155  MEMB      247             0.0000000000
     28095       247  POPC      H12A           21.0958560665      -28.0022900860      -20.4558609621  MEMB      247             0.0000000000
     28096       247  POPC      H12B           22.5711355378      -28.6663345909      -19.6290468390  MEMB      247             0.0000000000
     28097       247  POPC      C13            20.8450312311      -25.9809508555      -18.4392251096  MEMB      247             0.0000000000
     28098       247  POPC      H13A           19.9602452036      -25.9795474590      -19.0585406651  MEMB      247             0.0000000000
     28099       247  POPC      H13B           20.5829401720      -25.6392312647      -17.4488030029  MEMB      247             0.0000000000
     28100       247  POPC      H13C           21.5987643331      -25.2780764309      -18.7621088172  MEMB      247             0.0000000000
     28101       247  POPC      C14            20.3746040224      -28.3712954582      -17.9671989223  MEMB      247             0.0000000000
     28102       247  POPC      H14A           20.9133797997      -29.2808761988      -17.7463289225  MEMB      247             0.0000000000
     28103       247  POPC      H14B           19.9402216101      -28.0707417080      -17.0251907507  MEMB      247             0.0000000000
     28104       247  POPC      H14C           19.6440088030      -28.5177029251      -18.7489887913  MEMB      247             0.0000000000
     28105       247  POPC      C15            22.4813781680      -27.5813689354      -17.3895491567  MEMB      247             0.0000000000
     28106       247  POPC      H15A           22.8660937002      -28.5891319842      -17.4425358736  MEMB      247             0.0000000000
     28107       247  POPC      H15B           22.0897333813      -27.5489987399      -16.3835837481  MEMB      247             0.0000000000
     28108       247  POPC      H15C           23.2128497859      -26.7880218460      -17.4337036457  MEMB      247             0.0000000000
     28109       247  POPC      C11            22.8921540932      -26.7096771042      -20.5318835044  MEMB      247             0.0000000000
     28110       247  POPC      H11A           22.3309057755      -25.8074378396      -20.8563608911  MEMB      247             0.0000000000
     28111       247  POPC      H11B           23.2061017488      -27.3109476916      -21.4117878255  MEMB      247             0.0000000000
     28112       247  POPC      P              24.3322641937      -24.8639165835      -19.2874024735  MEMB      247             0.0000000000
     28113       247  POPC      O13            23.5378956895      -24.5004942725      -18.0531278768  MEMB      247             0.0000000000
     28114       247  POPC      O14            24.1874477878      -24.0718401135      -20.5234386541  MEMB      247             0.0000000000
     28115       247  POPC      O12            23.9905650333      -26.3218104490      -19.6884433058  MEMB      247             0.0000000000
     28116       247  POPC      O11            25.9181724967      -24.9189382795      -18.9338150530  MEMB      247             0.0000000000
     28117       247  POPC      C1             26.5880175210      -26.1619440881      -18.8438799896  MEMB      247             0.0000000000
     28118       247  POPC      HA             27.6943813766      -26.1139654149      -18.7545618877  MEMB      247             0.0000000000
     28119       247  POPC      HB             26.3291317017      -26.8876206963      -19.6443127353  MEMB      247             0.0000000000
     28120       247  POPC      C2             26.1201351064      -26.8496856875      -17.5174353253  MEMB      247             0.0000000000
     28121       247  POPC      HS             25.0289476917      -27.0452658878      -17.5907791821  MEMB      247             0.0000000000
     28122       247  POPC      O21            26.4650770531      -25.9604948284      -16.4962943984  MEMB      247             0.0000000000
     28123       247  POPC      C21            25.5434838125      -25.8895670804      -15.5036268874  MEMB      247             0.0000000000
     28124       247  POPC      O22            24.4567294969      -26.4205296776      -15.4125221149  MEMB      247             0.0000000000
     28125       247  POPC      C22            26.1437332516      -24.8547695044      -14.4989422260  MEMB      247             0.0000000000
     28126       247  POPC      H2R            26.1740210443      -23.8945305553      -15.0569249631  MEMB      247             0.0000000000
     28127       247  POPC      H2S            27.1884139069      -25.2143269064      -14.3819722916  MEMB      247             0.0000000000
     28128       247  POPC      C3             26.6996617148      -28.2464111172      -17.1668279462  MEMB      247             0.0000000000
     28129       247  POPC      HX             27.7794331873      -28.2345358276      -16.9055350021  MEMB      247             0.0000000000
     28130       247  POPC      HY             26.6707383468      -28.8850440717      -18.0754713009  MEMB      247             0.0000000000
     28131       247  POPC      O31            25.9470966703      -28.9202680974      -16.1432811775  MEMB      247             0.0000000000
     28132       247  POPC      C31            26.6179227279      -29.1406479004      -14.9929713182  MEMB      247             0.0000000000
     28133       247  POPC      O32            27.7734739064      -28.8396682371      -14.7365406213  MEMB      247             0.0000000000
     28134       247  POPC      C32            25.6924504119      -29.8634938362      -14.0358912967  MEMB      247             0.0000000000
     28135       247  POPC      H2X            26.3186508971      -30.6432966437      -13.5520512029  MEMB      247             0.0000000000
     28136       247  POPC      H2Y            24.8988972667      -30.3411455735      -14.6494408932  MEMB      247             0.0000000000
     28137       247  POPC      C23            25.3274915151      -24.7425998439      -13.2113998942  MEMB      247             0.0000000000
     28138       247  POPC      H3R            26.0340179224      -24.6370575068      -12.3605171171  MEMB      247             0.0000000000
     28139       247  POPC      H3S            24.6657189165      -25.6055642677      -12.9840888360  MEMB      247             0.0000000000
     28140       247  POPC      C24            24.5048358752      -23.4375283085      -13.1830461499  MEMB      247             0.0000000000
     28141       247  POPC      H4R            24.9789713815      -22.5680090424      -13.6864868691  MEMB      247             0.0000000000
     28142       247  POPC      H4S            24.4234272486      -23.1907549132      -12.1028625595  MEMB      247             0.0000000000
     28143       247  POPC      C25            23.0717483111      -23.4028690065      -13.8179191349  MEMB      247             0.0000000000
     28144       247  POPC      H5R            22.5391923901      -24.1944650210      -13.2486378696  MEMB      247             0.0000000000
     28145       247  POPC      H5S            23.1563695336      -23.6372595461      -14.9006108492  MEMB      247             0.0000000000
     28146       247  POPC      C26            22.2770562115      -22.0717160391      -13.6662217893  MEMB      247             0.0000000000
     28147       247  POPC      H6R            21.2753809443      -22.2022659873      -14.1287408902  MEMB      247             0.0000000000
     28148       247  POPC      H6S            22.6752140697      -21.3658811458      -14.4262141232  MEMB      247             0.0000000000
     28149       247  POPC      C27            22.1777059928      -21.4520358581      -12.2725581797  MEMB      247             0.0000000000
     28150       247  POPC      H7R            21.7976341064      -20.4194179506      -12.4260738612  MEMB      247             0.0000000000
     28151       247  POPC      H7S            23.1708987641      -21.1748353699      -11.8589776602  MEMB      247             0.0000000000
     28152       247  POPC      C28            21.1742720800      -22.1203841992      -11.3248272434  MEMB      247             0.0000000000
     28153       247  POPC      H8R            20.1768483531      -22.0941781755      -11.8134785139  MEMB      247             0.0000000000
     28154       247  POPC      H8S            21.0906114340      -21.5439667417      -10.3787485339  MEMB      247             0.0000000000
     28155       247  POPC      C29            21.3126279008      -23.5757593314      -10.9446974317  MEMB      247             0.0000000000
     28156       247  POPC      H91            20.6485526827      -24.2078322090      -11.5525529720  MEMB      247             0.0000000000
     28157       247  POPC      C210           21.9975761571      -24.1135998730       -9.9240304904  MEMB      247             0.0000000000
     28158       247  POPC      H101           22.0684482461      -25.2106810930       -9.9613105604  MEMB      247             0.0000000000
     28159       247  POPC      C211           22.8299584290      -23.3500620511       -8.9097073323  MEMB      247             0.0000000000
     28160       247  POPC      H11R           23.1498759581      -22.3586032565       -9.2956913405  MEMB      247             0.0000000000
     28161       247  POPC      H11S           23.8040323657      -23.8781747539       -8.8284805732  MEMB      247             0.0000000000
     28162       247  POPC      C212           22.2255011630      -23.1303317132       -7.5762383622  MEMB      247             0.0000000000
     28163       247  POPC      H12R           21.3615345862      -22.4318862069       -7.5686943699  MEMB      247             0.0000000000
     28164       247  POPC      H12S           23.0858913683      -22.6735755350       -7.0419881619  MEMB      247             0.0000000000
     28165       247  POPC      C213           21.7484137187      -24.3675365699       -6.7606400545  MEMB      247             0.0000000000
     28166       247  POPC      H13R           22.5970915533      -25.0735373627       -6.6356211410  MEMB      247             0.0000000000
     28167       247  POPC      H13S           20.9261592263      -24.9048248231       -7.2798123871  MEMB      247             0.0000000000
     28168       247  POPC      C214           21.0886782244      -24.0684980236       -5.4298158030  MEMB      247             0.0000000000
     28169       247  POPC      H14R           20.5138536701      -24.9439745228       -5.0590879283  MEMB      247             0.0000000000
     28170       247  POPC      H14S           20.3991904451      -23.1986138619       -5.4770288452  MEMB      247             0.0000000000
     28171       247  POPC      C215           22.1172692946      -23.6484148399       -4.3450060256  MEMB      247             0.0000000000
     28172       247  POPC      H15R           22.6495239438      -22.8233205100       -4.8648568216  MEMB      247             0.0000000000
     28173       247  POPC      H15S           22.7959755156      -24.4753621248       -4.0452779749  MEMB      247             0.0000000000
     28174       247  POPC      C216           21.3458694576      -23.1464767799       -3.1150109303  MEMB      247             0.0000000000
     28175       247  POPC      H16R           20.5432741590      -23.8577549501       -2.8247602987  MEMB      247             0.0000000000
     28176       247  POPC      H16S           20.8522991476      -22.1753980124       -3.3334494535  MEMB      247             0.0000000000
     28177       247  POPC      C217           22.1401169944      -23.1160697923       -1.7921667138  MEMB      247             0.0000000000
     28178       247  POPC      H17R           22.3865735749      -24.1484718508       -1.4639497568  MEMB      247             0.0000000000
     28179       247  POPC      H17S           21.4260961685      -22.6265511912       -1.0958428988  MEMB      247             0.0000000000
     28180       247  POPC      C218           23.5124993998      -22.4145371876       -1.7901340738  MEMB      247             0.0000000000
     28181       247  POPC      H18R           24.2805759342      -22.9587055896       -2.3802689585  MEMB      247             0.0000000000
     28182       247  POPC      H18S           23.8976268489      -22.3424920930       -0.7505142330  MEMB      247             0.0000000000
     28183       247  POPC      H18T           23.3967096200      -21.4159852887       -2.2632160783  MEMB      247             0.0000000000
     28184       247  POPC      C33            25.0795209218      -28.8814336568      -13.0317000684  MEMB      247             0.0000000000
     28185       247  POPC      H3X            24.4139391169      -28.1149343872      -13.4831426258  MEMB      247             0.0000000000
     28186       247  POPC      H3Y            25.8722220824      -28.3290386384      -12.4832428351  MEMB      247             0.0000000000
     28187       247  POPC      C34            24.2683037784      -29.6294142341      -11.9686144715  MEMB      247             0.0000000000
     28188       247  POPC      H4X            24.8079299826      -30.2924761529      -11.2590559470  MEMB      247             0.0000000000
     28189       247  POPC      H4Y            23.7451548473      -30.3694382904      -12.6112653970  MEMB      247             0.0000000000
     28190       247  POPC      C35            23.3776817330      -28.6449230928      -11.0982359721  MEMB      247             0.0000000000
     28191       247  POPC      H5X            22.6624530021      -29.2640985679      -10.5156634673  MEMB      247             0.0000000000
     28192       247  POPC      H5Y            22.8255054207      -28.0421421521      -11.8506172305  MEMB      247             0.0000000000
     28193       247  POPC      C36            24.1556879050      -27.6485567755      -10.2070110050  MEMB      247             0.0000000000
     28194       247  POPC      H6X            23.2660367479      -27.1607405590       -9.7543773636  MEMB      247             0.0000000000
     28195       247  POPC      H6Y            24.7414522728      -26.9425887594      -10.8337572112  MEMB      247             0.0000000000
     28196       247  POPC      C37            25.0999760616      -28.2032885554       -9.1540489820  MEMB      247             0.0000000000
     28197       247  POPC      H7X            25.5521716864      -27.2800536071       -8.7327688418  MEMB      247             0.0000000000
     28198       247  POPC      H7Y            25.9211965631      -28.8397506236       -9.5475386195  MEMB      247             0.0000000000
     28199       247  POPC      C38            24.2703081335      -28.8846193976       -8.0147390509  MEMB      247             0.0000000000
     28200       247  POPC      H8X            23.7314749164      -29.7235241883       -8.5048597118  MEMB      247             0.0000000000
     28201       247  POPC      H8Y            23.4625801373      -28.2113651080       -7.6560954871  MEMB      247             0.0000000000
     28202       247  POPC      C39            25.1501817543      -29.3113564242       -6.7858806377  MEMB      247             0.0000000000
     28203       247  POPC      H9X            25.8322834508      -30.1026192935       -7.1639824976  MEMB      247             0.0000000000
     28204       247  POPC      H9Y            24.5125414695      -29.7230420261       -5.9745544516  MEMB      247             0.0000000000
     28205       247  POPC      C310           26.0513794517      -28.2473348687       -6.0863374438  MEMB      247             0.0000000000
     28206       247  POPC      H10X           25.4422274397      -27.3754814079       -5.7652046308  MEMB      247             0.0000000000
     28207       247  POPC      H10Y           26.8255405277      -27.7703420714       -6.7246739550  MEMB      247             0.0000000000
     28208       247  POPC      C311           26.7230236962      -28.8762082959       -4.8635077860  MEMB      247             0.0000000000
     28209       247  POPC      H11X           27.6837428717      -28.3263290405       -4.7687853764  MEMB      247             0.0000000000
     28210       247  POPC      H11Y           26.9928717502      -29.9229503844       -5.1200892323  MEMB      247             0.0000000000
     28211       247  POPC      C312           26.0341350667      -28.5492027590       -3.4587233609  MEMB      247             0.0000000000
     28212       247  POPC      H12X           25.9216852550      -27.4611259073       -3.2643914132  MEMB      247             0.0000000000
     28213       247  POPC      H12Y           26.6261970941      -29.0567096402       -2.6673824718  MEMB      247             0.0000000000
     28214       247  POPC      C313           24.5819047922      -29.0763836819       -3.3308736157  MEMB      247             0.0000000000
     28215       247  POPC      H13X           24.5053653672      -30.1172847783       -3.7116460419  MEMB      247             0.0000000000
     28216       247  POPC      H13Y           23.9209144590      -28.4546754191       -3.9718819728  MEMB      247             0.0000000000
     28217       247  POPC      C314           24.1640257615      -29.0431110779       -1.8873205745  MEMB      247             0.0000000000
     28218       247  POPC      H14X           24.3517844745      -27.9876285850       -1.5957307710  MEMB      247             0.0000000000
     28219       247  POPC      H14Y           24.7680408581      -29.7383441229       -1.2659210456  MEMB      247             0.0000000000
     28220       247  POPC      C315           22.6642487368      -29.3705603000       -1.6600155474  MEMB      247             0.0000000000
     28221       247  POPC      H15X           22.3979483290      -30.2442061894       -2.2925891904  MEMB      247             0.0000000000
     28222       247  POPC      H15Y           22.1256591956      -28.5545282564       -2.1875909404  MEMB      247             0.0000000000
     28223       247  POPC      C316           22.3148637101      -29.4005007382       -0.1426055130  MEMB      247             0.0000000000
     28224       247  POPC      H16X           22.7035402850      -28.5164299101        0.4066404845  MEMB      247             0.0000000000
     28225       247  POPC      H16Y           22.7186056849      -30.3625152015        0.2392866927  MEMB      247             0.0000000000
     28226       247  POPC      H16Z           21.2149090335      -29.5197912203       -0.0416589142  MEMB      247             0.0000000000
     28227       248  POPE      N             -32.4215340914       -6.1892139341      -17.3469032239  MEMB      248             0.0000000000
     28228       248  POPE      HN1           -32.7425138813       -6.5350841624      -16.4201100034  MEMB      248             0.0000000000
     28229       248  POPE      HN2           -31.4625160069       -5.7902829542      -17.2945746557  MEMB      248             0.0000000000
     28230       248  POPE      HN3           -33.1316949958       -5.5615638712      -17.7750701524  MEMB      248             0.0000000000
     28231       248  POPE      C12           -32.3919325428       -7.3916232156      -18.2689252833  MEMB      248             0.0000000000
     28232       248  POPE      H12A          -31.7427931112       -8.1217085580      -17.7398558048  MEMB      248             0.0000000000
     28233       248  POPE      H12B          -31.8756306231       -7.0361361640      -19.1861942588  MEMB      248             0.0000000000
     28234       248  POPE      C11           -33.7868255373       -7.9870295239      -18.5329265554  MEMB      248             0.0000000000
     28235       248  POPE      H11A          -34.2842926064       -8.1372712788      -17.5509515026  MEMB      248             0.0000000000
     28236       248  POPE      H11B          -33.6034436838       -8.9890811541      -18.9763052651  MEMB      248             0.0000000000
     28237       248  POPE      P             -36.1028695726       -7.5697683973      -19.6904537688  MEMB      248             0.0000000000
     28238       248  POPE      O13           -36.1627090714       -9.0437191148      -19.8244400521  MEMB      248             0.0000000000
     28239       248  POPE      O14           -36.7584783287       -6.7198842983      -20.7382642393  MEMB      248             0.0000000000
     28240       248  POPE      O11           -36.7020321897       -7.0573826026      -18.3067135850  MEMB      248             0.0000000000
     28241       248  POPE      O12           -34.5991618865       -7.0676474381      -19.2913732947  MEMB      248             0.0000000000
     28242       248  POPE      C1            -36.3229808122       -5.8837507211      -17.5734428949  MEMB      248             0.0000000000
     28243       248  POPE      HA            -36.5300845116       -5.0221769682      -18.2436068908  MEMB      248             0.0000000000
     28244       248  POPE      HB            -35.2627831582       -5.8627563086      -17.2419897806  MEMB      248             0.0000000000
     28245       248  POPE      C2            -37.1797849010       -5.8493357942      -16.2638095817  MEMB      248             0.0000000000
     28246       248  POPE      HS            -36.6300326919       -5.2312704253      -15.5221298806  MEMB      248             0.0000000000
     28247       248  POPE      O21           -37.3660983145       -7.1720928624      -15.7641394475  MEMB      248             0.0000000000
     28248       248  POPE      C21           -36.4124004384       -7.7453536003      -15.1316137046  MEMB      248             0.0000000000
     28249       248  POPE      O22           -35.3334941690       -7.3725852371      -14.7876181814  MEMB      248             0.0000000000
     28250       248  POPE      C22           -36.8865486138       -9.2007722349      -14.8676673021  MEMB      248             0.0000000000
     28251       248  POPE      H2R           -35.9764645459       -9.8227400114      -15.0063182513  MEMB      248             0.0000000000
     28252       248  POPE      H2S           -37.6553908302       -9.4542081575      -15.6285700846  MEMB      248             0.0000000000
     28253       248  POPE      C3            -38.5907453372       -5.1750887245      -16.4634619435  MEMB      248             0.0000000000
     28254       248  POPE      HX            -39.0654455063       -5.8519265813      -17.2056689462  MEMB      248             0.0000000000
     28255       248  POPE      HY            -38.3647330400       -4.1250936793      -16.7476277943  MEMB      248             0.0000000000
     28256       248  POPE      O31           -39.4457165785       -5.2230316126      -15.3039103792  MEMB      248             0.0000000000
     28257       248  POPE      C31           -39.3918254547       -4.1315111010      -14.5516761322  MEMB      248             0.0000000000
     28258       248  POPE      O32           -38.5095802770       -3.2697044579      -14.5527457248  MEMB      248             0.0000000000
     28259       248  POPE      C32           -40.5895141345       -4.1848684636      -13.5651001209  MEMB      248             0.0000000000
     28260       248  POPE      H2X           -41.5770164242       -4.4001176928      -14.0264323506  MEMB      248             0.0000000000
     28261       248  POPE      H2Y           -40.6279475745       -3.1883933406      -13.0753237756  MEMB      248             0.0000000000
     28262       248  POPE      C23           -37.3271462185       -9.4051426494      -13.4029913011  MEMB      248             0.0000000000
     28263       248  POPE      H3R           -37.7488797255      -10.4328470029      -13.4198929196  MEMB      248             0.0000000000
     28264       248  POPE      H3S           -38.0834141867       -8.7124313029      -12.9757553368  MEMB      248             0.0000000000
     28265       248  POPE      C24           -36.3265971798       -9.4458194091      -12.2857616961  MEMB      248             0.0000000000
     28266       248  POPE      H4R           -35.6098389588       -8.6225426719      -12.4926286922  MEMB      248             0.0000000000
     28267       248  POPE      H4S           -35.7710058565      -10.4078317311      -12.2988579310  MEMB      248             0.0000000000
     28268       248  POPE      C25           -36.8448423384       -9.3244524540      -10.8043200101  MEMB      248             0.0000000000
     28269       248  POPE      H5R           -37.4795746954      -10.2111990384      -10.5919154694  MEMB      248             0.0000000000
     28270       248  POPE      H5S           -37.4255253527       -8.3788956444      -10.7490902179  MEMB      248             0.0000000000
     28271       248  POPE      C26           -35.7490650730       -9.2283164177       -9.7321904574  MEMB      248             0.0000000000
     28272       248  POPE      H6R           -35.0606594279       -8.3647743198       -9.8534907624  MEMB      248             0.0000000000
     28273       248  POPE      H6S           -35.0622120605      -10.0835443867       -9.9086523462  MEMB      248             0.0000000000
     28274       248  POPE      C27           -36.2707377533       -9.1497849489       -8.3281403964  MEMB      248             0.0000000000
     28275       248  POPE      H7R           -37.2035792007       -9.7526242879       -8.3548346463  MEMB      248             0.0000000000
     28276       248  POPE      H7S           -36.6967948158       -8.1619943253       -8.0505332647  MEMB      248             0.0000000000
     28277       248  POPE      C28           -35.2864556533       -9.6484698133       -7.2145930065  MEMB      248             0.0000000000
     28278       248  POPE      H8R           -34.4936662227       -8.8882784217       -7.0475154789  MEMB      248             0.0000000000
     28279       248  POPE      H8S           -34.8329849078      -10.5533587123       -7.6726994550  MEMB      248             0.0000000000
     28280       248  POPE      C29           -35.7310228004       -9.9744313169       -5.7665319574  MEMB      248             0.0000000000
     28281       248  POPE      H91           -35.3000474739       -9.3144803387       -4.9992480030  MEMB      248             0.0000000000
     28282       248  POPE      C210          -36.6848485921      -10.9632376712       -5.4980655822  MEMB      248             0.0000000000
     28283       248  POPE      H101          -37.1134436506      -11.0676410929       -4.4903919416  MEMB      248             0.0000000000
     28284       248  POPE      C211          -37.4951336989      -11.9431793745       -6.3807016236  MEMB      248             0.0000000000
     28285       248  POPE      H11R          -37.4391071515      -13.0179297597       -6.1048505442  MEMB      248             0.0000000000
     28286       248  POPE      H11S          -37.1592767186      -11.8921706573       -7.4384906881  MEMB      248             0.0000000000
     28287       248  POPE      C212          -39.0394738501      -11.6148476137       -6.3964563192  MEMB      248             0.0000000000
     28288       248  POPE      H12R          -39.6199580028      -12.4477195782       -6.8477698979  MEMB      248             0.0000000000
     28289       248  POPE      H12S          -39.2345927280      -10.8326478798       -7.1609258696  MEMB      248             0.0000000000
     28290       248  POPE      C213          -39.7152331016      -11.2309419078       -4.9693680002  MEMB      248             0.0000000000
     28291       248  POPE      H13R          -39.3678750049      -10.2902069102       -4.4911623109  MEMB      248             0.0000000000
     28292       248  POPE      H13S          -39.5372769524      -12.0691614377       -4.2622329569  MEMB      248             0.0000000000
     28293       248  POPE      C214          -41.3066433275      -10.9351239289       -4.9651986345  MEMB      248             0.0000000000
     28294       248  POPE      H14R          -41.6739723866      -10.8916205788       -3.9175831665  MEMB      248             0.0000000000
     28295       248  POPE      H14S          -41.7159642717      -11.8438629294       -5.4560863650  MEMB      248             0.0000000000
     28296       248  POPE      C215          -41.7621849056       -9.8028382208       -5.8184116719  MEMB      248             0.0000000000
     28297       248  POPE      H15R          -42.8422514697       -9.8911797862       -6.0633054138  MEMB      248             0.0000000000
     28298       248  POPE      H15S          -41.1436211564       -9.7603522679       -6.7403091503  MEMB      248             0.0000000000
     28299       248  POPE      C216          -41.6510158606       -8.3744260261       -5.1947491268  MEMB      248             0.0000000000
     28300       248  POPE      H16R          -41.9035335603       -7.6830461937       -6.0269448144  MEMB      248             0.0000000000
     28301       248  POPE      H16S          -40.6530938797       -8.1370432197       -4.7679913451  MEMB      248             0.0000000000
     28302       248  POPE      C217          -42.4608401973       -8.0934097357       -3.8344577508  MEMB      248             0.0000000000
     28303       248  POPE      H17R          -41.9583780228       -8.7644339074       -3.1053624592  MEMB      248             0.0000000000
     28304       248  POPE      H17S          -43.5141387394       -8.4374727481       -3.9151022478  MEMB      248             0.0000000000
     28305       248  POPE      C218          -42.3581141284       -6.7057420785       -3.3488012208  MEMB      248             0.0000000000
     28306       248  POPE      H18R          -42.8667887299       -6.5191938778       -2.3788688112  MEMB      248             0.0000000000
     28307       248  POPE      H18S          -42.7551115574       -5.9837493250       -4.0940807306  MEMB      248             0.0000000000
     28308       248  POPE      H18T          -41.2693750845       -6.4961487374       -3.2778158144  MEMB      248             0.0000000000
     28309       248  POPE      C33           -40.4112422196       -5.2643056662      -12.5332966562  MEMB      248             0.0000000000
     28310       248  POPE      H3X           -40.3565643875       -6.2661736246      -13.0103625528  MEMB      248             0.0000000000
     28311       248  POPE      H3Y           -41.3429484380       -5.2859240892      -11.9285023349  MEMB      248             0.0000000000
     28312       248  POPE      C34           -39.2090733640       -4.9478880845      -11.5950487726  MEMB      248             0.0000000000
     28313       248  POPE      H4X           -39.5469539368       -4.0750338480      -10.9964820201  MEMB      248             0.0000000000
     28314       248  POPE      H4Y           -38.2505974237       -4.8404059272      -12.1464949910  MEMB      248             0.0000000000
     28315       248  POPE      C35           -38.9800597817       -5.9981651526      -10.4495313943  MEMB      248             0.0000000000
     28316       248  POPE      H5X           -37.9279648720       -6.0109331461      -10.0928041836  MEMB      248             0.0000000000
     28317       248  POPE      H5Y           -38.9734627983       -6.9737990607      -10.9809593944  MEMB      248             0.0000000000
     28318       248  POPE      C36           -40.0805506098       -6.1329045942       -9.4807689605  MEMB      248             0.0000000000
     28319       248  POPE      H6X           -39.9351398457       -7.1648567622       -9.0957347570  MEMB      248             0.0000000000
     28320       248  POPE      H6Y           -41.0682990742       -6.0470794337       -9.9820754336  MEMB      248             0.0000000000
     28321       248  POPE      C37           -40.0386967122       -5.2629371963       -8.2089737200  MEMB      248             0.0000000000
     28322       248  POPE      H7X           -41.0527691197       -5.2802842716       -7.7554564389  MEMB      248             0.0000000000
     28323       248  POPE      H7Y           -39.9503952243       -4.1920722950       -8.4914122437  MEMB      248             0.0000000000
     28324       248  POPE      C38           -39.0056335198       -5.8069289313       -7.1892675341  MEMB      248             0.0000000000
     28325       248  POPE      H8X           -37.9217715249       -5.7725028563       -7.4308843212  MEMB      248             0.0000000000
     28326       248  POPE      H8Y           -39.2658507758       -6.8233674502       -6.8239449360  MEMB      248             0.0000000000
     28327       248  POPE      C39           -39.0841418786       -4.7927978369       -6.0357197659  MEMB      248             0.0000000000
     28328       248  POPE      H9X           -40.0277611564       -4.9589178733       -5.4733069761  MEMB      248             0.0000000000
     28329       248  POPE      H9Y           -39.0363637990       -3.7091128536       -6.2758546147  MEMB      248             0.0000000000
     28330       248  POPE      C310          -37.9051669855       -5.0056823392       -4.9819281439  MEMB      248             0.0000000000
     28331       248  POPE      H10X          -37.8115305862       -4.0542765104       -4.4159072741  MEMB      248             0.0000000000
     28332       248  POPE      H10Y          -36.9403789189       -5.3090198465       -5.4418106681  MEMB      248             0.0000000000
     28333       248  POPE      C311          -38.2193052946       -6.1000510885       -3.9548701411  MEMB      248             0.0000000000
     28334       248  POPE      H11X          -38.4168586653       -7.0678595130       -4.4634370579  MEMB      248             0.0000000000
     28335       248  POPE      H11Y          -39.1854069163       -5.7827485584       -3.5073360146  MEMB      248             0.0000000000
     28336       248  POPE      C312          -37.0655516372       -6.3246271533       -2.9884877366  MEMB      248             0.0000000000
     28337       248  POPE      H12X          -36.4293031838       -5.4167960760       -3.0616426608  MEMB      248             0.0000000000
     28338       248  POPE      H12Y          -36.3916000663       -7.1642193096       -3.2627043392  MEMB      248             0.0000000000
     28339       248  POPE      C313          -37.5486989854       -6.5738231685       -1.5297076255  MEMB      248             0.0000000000
     28340       248  POPE      H13X          -38.0370457522       -5.6887595451       -1.0687309385  MEMB      248             0.0000000000
     28341       248  POPE      H13Y          -36.6468491097       -6.6999133246       -0.8932427030  MEMB      248             0.0000000000
     28342       248  POPE      C314          -38.4079088494       -7.8377694986       -1.4639327959  MEMB      248             0.0000000000
     28343       248  POPE      H14X          -39.3390972717       -7.5721597345       -2.0085980487  MEMB      248             0.0000000000
     28344       248  POPE      H14Y          -38.6914618406       -7.8660023085       -0.3900973410  MEMB      248             0.0000000000
     28345       248  POPE      C315          -37.8349728535       -9.2507744065       -1.8061683958  MEMB      248             0.0000000000
     28346       248  POPE      H15X          -37.6977051920       -9.3134350883       -2.9068744900  MEMB      248             0.0000000000
     28347       248  POPE      H15Y          -38.6403871716       -9.9736116080       -1.5549021130  MEMB      248             0.0000000000
     28348       248  POPE      C316          -36.6122865299       -9.4735637704       -0.9599176148  MEMB      248             0.0000000000
     28349       248  POPE      H16X          -36.8106603002       -9.0843189013        0.0615807367  MEMB      248             0.0000000000
     28350       248  POPE      H16Y          -35.7390107039       -8.8893976171       -1.3211084309  MEMB      248             0.0000000000
     28351       248  POPE      H16Z          -36.4382554793      -10.5705259788       -0.9333034665  MEMB      248             0.0000000000
     28352       249  POPE      N             -32.9732209000      -17.5016372225      -20.9164491468  MEMB      249             0.0000000000
     28353       249  POPE      HN1           -33.3284635195      -17.9759397515      -21.7711068615  MEMB      249             0.0000000000
     28354       249  POPE      HN2           -32.4681499269      -18.1830050612      -20.3145843381  MEMB      249             0.0000000000
     28355       249  POPE      HN3           -33.8467575601      -17.2172122190      -20.4289697137  MEMB      249             0.0000000000
     28356       249  POPE      C12           -32.1427937469      -16.3407001360      -21.3440585151  MEMB      249             0.0000000000
     28357       249  POPE      H12A          -32.7475217769      -15.5618033824      -21.8558637822  MEMB      249             0.0000000000
     28358       249  POPE      H12B          -31.5137123850      -16.7964180260      -22.1383498514  MEMB      249             0.0000000000
     28359       249  POPE      C11           -31.2452676753      -15.7349025692      -20.2705079967  MEMB      249             0.0000000000
     28360       249  POPE      H11A          -30.6516833826      -14.8768800001      -20.6523141988  MEMB      249             0.0000000000
     28361       249  POPE      H11B          -30.5639484470      -16.4975262427      -19.8363072165  MEMB      249             0.0000000000
     28362       249  POPE      P             -31.6249127307      -14.8872052048      -17.8811537092  MEMB      249             0.0000000000
     28363       249  POPE      O13           -32.1311548803      -13.5430162009      -17.4339159367  MEMB      249             0.0000000000
     28364       249  POPE      O14           -30.2064047055      -15.2436997157      -17.6426948624  MEMB      249             0.0000000000
     28365       249  POPE      O11           -32.4586641240      -16.1409414216      -17.1462419391  MEMB      249             0.0000000000
     28366       249  POPE      O12           -32.1451508199      -15.1091935164      -19.3649779278  MEMB      249             0.0000000000
     28367       249  POPE      C1            -33.8240639342      -15.9953227033      -16.8444429324  MEMB      249             0.0000000000
     28368       249  POPE      HA            -34.2194469985      -17.0294759908      -16.7521380195  MEMB      249             0.0000000000
     28369       249  POPE      HB            -34.3830535486      -15.6260091985      -17.7307042971  MEMB      249             0.0000000000
     28370       249  POPE      C2            -34.0341283956      -15.2947578875      -15.4497829780  MEMB      249             0.0000000000
     28371       249  POPE      HS            -33.6015661624      -14.2903483546      -15.6456716112  MEMB      249             0.0000000000
     28372       249  POPE      O21           -33.4238848188      -16.0353825880      -14.3953881871  MEMB      249             0.0000000000
     28373       249  POPE      C21           -32.9047605318      -15.2242552979      -13.3908814263  MEMB      249             0.0000000000
     28374       249  POPE      O22           -32.8513592573      -14.0129832592      -13.4847763580  MEMB      249             0.0000000000
     28375       249  POPE      C22           -32.5229581704      -16.0738552743      -12.2254071436  MEMB      249             0.0000000000
     28376       249  POPE      H2R           -31.7775262083      -16.7498613760      -12.6962232703  MEMB      249             0.0000000000
     28377       249  POPE      H2S           -33.4550639589      -16.5669466440      -11.8756063513  MEMB      249             0.0000000000
     28378       249  POPE      C3            -35.5887573034      -15.1782922605      -15.1852690492  MEMB      249             0.0000000000
     28379       249  POPE      HX            -36.0838942654      -16.1243901735      -15.4919600382  MEMB      249             0.0000000000
     28380       249  POPE      HY            -36.0110147984      -14.3614357161      -15.8087791960  MEMB      249             0.0000000000
     28381       249  POPE      O31           -35.9105215369      -14.8435220947      -13.7959615253  MEMB      249             0.0000000000
     28382       249  POPE      C31           -36.2754982495      -15.8061931490      -13.0247609023  MEMB      249             0.0000000000
     28383       249  POPE      O32           -36.5702135148      -16.9682781193      -13.3155783428  MEMB      249             0.0000000000
     28384       249  POPE      C32           -36.5334209773      -15.1215622473      -11.6947806373  MEMB      249             0.0000000000
     28385       249  POPE      H2X           -37.5832012391      -14.7987856386      -11.8624047314  MEMB      249             0.0000000000
     28386       249  POPE      H2Y           -35.8605938850      -14.2438238032      -11.5889523490  MEMB      249             0.0000000000
     28387       249  POPE      C23           -31.8027887080      -15.2317463312      -11.1007319853  MEMB      249             0.0000000000
     28388       249  POPE      H3R           -32.2215429393      -14.2093835481      -11.2179509488  MEMB      249             0.0000000000
     28389       249  POPE      H3S           -30.7226581083      -15.1893307924      -11.3573246878  MEMB      249             0.0000000000
     28390       249  POPE      C24           -32.1632542953      -15.5841211599       -9.7187771854  MEMB      249             0.0000000000
     28391       249  POPE      H4R           -33.2431486357      -15.5165568945       -9.4666183734  MEMB      249             0.0000000000
     28392       249  POPE      H4S           -31.7508683707      -14.8920303110       -8.9537485407  MEMB      249             0.0000000000
     28393       249  POPE      C25           -31.6234339530      -16.9823152057       -9.2830959455  MEMB      249             0.0000000000
     28394       249  POPE      H5R           -32.2329549063      -17.7299917794       -9.8342622161  MEMB      249             0.0000000000
     28395       249  POPE      H5S           -32.0592389095      -17.1850905408       -8.2814577753  MEMB      249             0.0000000000
     28396       249  POPE      C26           -30.1665954548      -17.3587763942       -9.4467284185  MEMB      249             0.0000000000
     28397       249  POPE      H6R           -29.4945515275      -16.5748025853       -9.0367735964  MEMB      249             0.0000000000
     28398       249  POPE      H6S           -29.8826884177      -17.2442326618      -10.5147155980  MEMB      249             0.0000000000
     28399       249  POPE      C27           -29.9200247708      -18.8208947074       -9.0096193345  MEMB      249             0.0000000000
     28400       249  POPE      H7R           -28.8307653916      -19.0111252399       -9.1175426014  MEMB      249             0.0000000000
     28401       249  POPE      H7S           -30.5406964380      -19.4272437007       -9.7034701087  MEMB      249             0.0000000000
     28402       249  POPE      C28           -30.3445787354      -19.1788041792       -7.5388951877  MEMB      249             0.0000000000
     28403       249  POPE      H8R           -29.9264296410      -20.1843073237       -7.3188158675  MEMB      249             0.0000000000
     28404       249  POPE      H8S           -31.4330157423      -19.3965478243       -7.4918501042  MEMB      249             0.0000000000
     28405       249  POPE      C29           -29.9369817352      -18.2890676369       -6.3304187241  MEMB      249             0.0000000000
     28406       249  POPE      H91           -28.8757177015      -18.0389300275       -6.1849891833  MEMB      249             0.0000000000
     28407       249  POPE      C210          -30.8197882464      -17.5969420783       -5.5206295827  MEMB      249             0.0000000000
     28408       249  POPE      H101          -30.4166941836      -16.9096814863       -4.7622175351  MEMB      249             0.0000000000
     28409       249  POPE      C211          -32.3459919516      -17.5623534114       -5.5613224574  MEMB      249             0.0000000000
     28410       249  POPE      H11R          -32.6093990201      -18.6368844416       -5.6629123719  MEMB      249             0.0000000000
     28411       249  POPE      H11S          -32.8168489761      -16.9281974245       -6.3426423521  MEMB      249             0.0000000000
     28412       249  POPE      C212          -33.0249519535      -16.9339487316       -4.2974710279  MEMB      249             0.0000000000
     28413       249  POPE      H12R          -32.5452535589      -17.5203028588       -3.4848210437  MEMB      249             0.0000000000
     28414       249  POPE      H12S          -34.1080876400      -17.0829313582       -4.4948092029  MEMB      249             0.0000000000
     28415       249  POPE      C213          -32.7335386757      -15.4003582065       -4.1537761851  MEMB      249             0.0000000000
     28416       249  POPE      H13R          -32.7488767606      -14.9365582494       -5.1632187280  MEMB      249             0.0000000000
     28417       249  POPE      H13S          -31.6747061419      -15.2055651006       -3.8794579775  MEMB      249             0.0000000000
     28418       249  POPE      C214          -33.5523108876      -14.6679867073       -3.1272807677  MEMB      249             0.0000000000
     28419       249  POPE      H14R          -34.5542893372      -14.7025309630       -3.6059947829  MEMB      249             0.0000000000
     28420       249  POPE      H14S          -33.2891564844      -13.5917764268       -3.0445614136  MEMB      249             0.0000000000
     28421       249  POPE      C215          -33.7889739281      -15.2195908078       -1.7164237502  MEMB      249             0.0000000000
     28422       249  POPE      H15R          -32.8134275131      -15.1480974725       -1.1896236476  MEMB      249             0.0000000000
     28423       249  POPE      H15S          -34.0621244133      -16.2960208752       -1.7481725534  MEMB      249             0.0000000000
     28424       249  POPE      C216          -34.8142194730      -14.4888857559       -0.7713352750  MEMB      249             0.0000000000
     28425       249  POPE      H16R          -34.9808316769      -15.1729509136        0.0880911012  MEMB      249             0.0000000000
     28426       249  POPE      H16S          -35.6773216727      -14.4667102623       -1.4705379515  MEMB      249             0.0000000000
     28427       249  POPE      C217          -34.5418733957      -12.9932505450       -0.3971416237  MEMB      249             0.0000000000
     28428       249  POPE      H17R          -35.3827855370      -12.4439559561        0.0776877619  MEMB      249             0.0000000000
     28429       249  POPE      H17S          -34.5249618736      -12.4810100384       -1.3828624531  MEMB      249             0.0000000000
     28430       249  POPE      C218          -33.2977328899      -12.6562504970        0.4529823460  MEMB      249             0.0000000000
     28431       249  POPE      H18R          -33.3188986415      -11.6004082097        0.7980490201  MEMB      249             0.0000000000
     28432       249  POPE      H18S          -32.3538790547      -12.9327163589       -0.0637642635  MEMB      249             0.0000000000
     28433       249  POPE      H18T          -33.3088093613      -13.3677407507        1.3061995989  MEMB      249             0.0000000000
     28434       249  POPE      C33           -36.2842952148      -16.0218908608      -10.4366801839  MEMB      249             0.0000000000
     28435       249  POPE      H3X           -35.2292072358      -16.3274503417      -10.2701152555  MEMB      249             0.0000000000
     28436       249  POPE      H3Y           -36.9234846861      -16.9234523620      -10.5504537989  MEMB      249             0.0000000000
     28437       249  POPE      C34           -36.6664311200      -15.2655666085       -9.1556363983  MEMB      249             0.0000000000
     28438       249  POPE      H4X           -37.7679270825      -15.1232263083       -9.1279437132  MEMB      249             0.0000000000
     28439       249  POPE      H4Y           -36.1683155635      -14.2742277850       -9.2143667650  MEMB      249             0.0000000000
     28440       249  POPE      C35           -36.0865560100      -15.9005137840       -7.8907601760  MEMB      249             0.0000000000
     28441       249  POPE      H5X           -36.3160963838      -15.1047847555       -7.1501880839  MEMB      249             0.0000000000
     28442       249  POPE      H5Y           -34.9786234061      -15.9815448467       -7.8752527450  MEMB      249             0.0000000000
     28443       249  POPE      C36           -36.5615230317      -17.3149500247       -7.5443564506  MEMB      249             0.0000000000
     28444       249  POPE      H6X           -36.0576337804      -18.0990175984       -8.1490508413  MEMB      249             0.0000000000
     28445       249  POPE      H6Y           -37.6570165073      -17.3663638893       -7.7220396719  MEMB      249             0.0000000000
     28446       249  POPE      C37           -36.1994575590      -17.5736011668       -6.0085347900  MEMB      249             0.0000000000
     28447       249  POPE      H7X           -36.4984288734      -16.6687429314       -5.4374226739  MEMB      249             0.0000000000
     28448       249  POPE      H7Y           -35.0924576960      -17.6452711511       -6.0696582335  MEMB      249             0.0000000000
     28449       249  POPE      C38           -36.7541747908      -18.8907770110       -5.4796408438  MEMB      249             0.0000000000
     28450       249  POPE      H8X           -37.7916545182      -18.9375510089       -5.8743162463  MEMB      249             0.0000000000
     28451       249  POPE      H8Y           -36.7374970070      -18.9664292536       -4.3713448328  MEMB      249             0.0000000000
     28452       249  POPE      C39           -36.0507554096      -20.2083632481       -6.0425073640  MEMB      249             0.0000000000
     28453       249  POPE      H9X           -36.1602600682      -20.2890934034       -7.1451463813  MEMB      249             0.0000000000
     28454       249  POPE      H9Y           -36.7462285357      -20.9684555151       -5.6266976941  MEMB      249             0.0000000000
     28455       249  POPE      C310          -34.6625888286      -20.3939732459       -5.6440483028  MEMB      249             0.0000000000
     28456       249  POPE      H10X          -34.5580109330      -19.8258782772       -4.6950213870  MEMB      249             0.0000000000
     28457       249  POPE      H10Y          -33.9712127025      -20.0223668903       -6.4303244387  MEMB      249             0.0000000000
     28458       249  POPE      C311          -34.3081527025      -21.8920471102       -5.4041992300  MEMB      249             0.0000000000
     28459       249  POPE      H11X          -34.2995586378      -22.3307549425       -6.4248770713  MEMB      249             0.0000000000
     28460       249  POPE      H11Y          -35.0958757319      -22.4372501989       -4.8415558688  MEMB      249             0.0000000000
     28461       249  POPE      C312          -32.9340163819      -22.0878643341       -4.6442586091  MEMB      249             0.0000000000
     28462       249  POPE      H12X          -32.0837726025      -22.1403115693       -5.3574593707  MEMB      249             0.0000000000
     28463       249  POPE      H12Y          -33.0909204443      -23.0222047340       -4.0639912135  MEMB      249             0.0000000000
     28464       249  POPE      C313          -32.5646921501      -21.0379979154       -3.5747700978  MEMB      249             0.0000000000
     28465       249  POPE      H13X          -33.4402800802      -20.8284527014       -2.9238026840  MEMB      249             0.0000000000
     28466       249  POPE      H13Y          -32.1673419712      -20.1172463391       -4.0529433950  MEMB      249             0.0000000000
     28467       249  POPE      C314          -31.4605574915      -21.6040202229       -2.6409414260  MEMB      249             0.0000000000
     28468       249  POPE      H14X          -30.5175776169      -21.8751936104       -3.1620701596  MEMB      249             0.0000000000
     28469       249  POPE      H14Y          -31.8451345177      -22.5244612441       -2.1518497323  MEMB      249             0.0000000000
     28470       249  POPE      C315          -31.1550179823      -20.6653202687       -1.4355395843  MEMB      249             0.0000000000
     28471       249  POPE      H15X          -30.5682896448      -21.2728856768       -0.7137813942  MEMB      249             0.0000000000
     28472       249  POPE      H15Y          -32.1564778123      -20.3306045000       -1.0900481137  MEMB      249             0.0000000000
     28473       249  POPE      C316          -30.2138867292      -19.5087012128       -1.7038529172  MEMB      249             0.0000000000
     28474       249  POPE      H16X          -29.3090601924      -19.9022799758       -2.2144450743  MEMB      249             0.0000000000
     28475       249  POPE      H16Y          -29.9696978977      -19.0263815526       -0.7332543042  MEMB      249             0.0000000000
     28476       249  POPE      H16Z          -30.7199390516      -18.9079387039       -2.4895472875  MEMB      249             0.0000000000
     28477       250  POPE      N             -35.7814217519        0.6084003315      -17.5662227447  MEMB      250             0.0000000000
     28478       250  POPE      HN1           -36.1842767727        0.9662957357      -16.6767180350  MEMB      250             0.0000000000
     28479       250  POPE      HN2           -34.7950863158        0.2831849664      -17.6207874377  MEMB      250             0.0000000000
     28480       250  POPE      HN3           -35.9552510575        1.3115441654      -18.3125284578  MEMB      250             0.0000000000
     28481       250  POPE      C12           -36.5896473094       -0.5921554772      -17.8211963499  MEMB      250             0.0000000000
     28482       250  POPE      H12A          -36.5556732439       -1.1544042099      -16.8635726558  MEMB      250             0.0000000000
     28483       250  POPE      H12B          -36.1549941084       -1.3400855403      -18.5183320954  MEMB      250             0.0000000000
     28484       250  POPE      C11           -38.0975737017       -0.2949462390      -18.0767252720  MEMB      250             0.0000000000
     28485       250  POPE      H11A          -38.2318412483        0.5485958745      -17.3662817610  MEMB      250             0.0000000000
     28486       250  POPE      H11B          -38.5732603611       -1.2284095107      -17.7070097468  MEMB      250             0.0000000000
     28487       250  POPE      P             -39.8986292040       -0.0627343906      -19.8092635107  MEMB      250             0.0000000000
     28488       250  POPE      O13           -40.3404885773       -1.5060767616      -19.6469175216  MEMB      250             0.0000000000
     28489       250  POPE      O14           -40.2627233090        0.6836535939      -21.1017432982  MEMB      250             0.0000000000
     28490       250  POPE      O11           -40.5482345689        0.7184115479      -18.5378277186  MEMB      250             0.0000000000
     28491       250  POPE      O12           -38.3305786680        0.0205509670      -19.4401035818  MEMB      250             0.0000000000
     28492       250  POPE      C1            -40.4812858240        2.1406250845      -18.4443315604  MEMB      250             0.0000000000
     28493       250  POPE      HA            -40.9708685709        2.6383393720      -19.3085713030  MEMB      250             0.0000000000
     28494       250  POPE      HB            -39.4243776644        2.4632842183      -18.5590362849  MEMB      250             0.0000000000
     28495       250  POPE      C2            -41.2641205137        2.6502561780      -17.2340318937  MEMB      250             0.0000000000
     28496       250  POPE      HS            -41.2301475219        3.7605656618      -17.2535127597  MEMB      250             0.0000000000
     28497       250  POPE      O21           -40.6396240545        2.1317688190      -16.0512267716  MEMB      250             0.0000000000
     28498       250  POPE      C21           -39.4058844198        2.5394094245      -15.7486950210  MEMB      250             0.0000000000
     28499       250  POPE      O22           -38.8407338390        3.5328183136      -16.2280139587  MEMB      250             0.0000000000
     28500       250  POPE      C22           -38.8969778082        1.5664105500      -14.7144639149  MEMB      250             0.0000000000
     28501       250  POPE      H2R           -37.8536024031        1.8884096508      -14.5095124702  MEMB      250             0.0000000000
     28502       250  POPE      H2S           -38.9271289194        0.5169768584      -15.0779207888  MEMB      250             0.0000000000
     28503       250  POPE      C3            -42.7046852942        2.2169487011      -17.2688648226  MEMB      250             0.0000000000
     28504       250  POPE      HX            -42.7832913056        1.1087753319      -17.2591855504  MEMB      250             0.0000000000
     28505       250  POPE      HY            -43.1395371433        2.5734418117      -18.2270598983  MEMB      250             0.0000000000
     28506       250  POPE      O31           -43.6303690523        2.6440643285      -16.2071567083  MEMB      250             0.0000000000
     28507       250  POPE      C31           -43.7199697406        1.9615431792      -15.1512508291  MEMB      250             0.0000000000
     28508       250  POPE      O32           -43.1328877454        0.9077627878      -14.9063571779  MEMB      250             0.0000000000
     28509       250  POPE      C32           -44.7173947494        2.5755098279      -14.1977322867  MEMB      250             0.0000000000
     28510       250  POPE      H2X           -45.7097636619        2.1010496342      -14.3539772408  MEMB      250             0.0000000000
     28511       250  POPE      H2Y           -44.7673459921        3.6758447522      -14.3429513709  MEMB      250             0.0000000000
     28512       250  POPE      C23           -39.7432791326        1.8080330951      -13.4338233676  MEMB      250             0.0000000000
     28513       250  POPE      H3R           -40.7262846886        1.2977854863      -13.5213935800  MEMB      250             0.0000000000
     28514       250  POPE      H3S           -40.0228823152        2.8755148049      -13.3048824643  MEMB      250             0.0000000000
     28515       250  POPE      C24           -39.0937067583        1.4055793400      -12.0921684995  MEMB      250             0.0000000000
     28516       250  POPE      H4R           -39.4854660104        2.1589470643      -11.3757311485  MEMB      250             0.0000000000
     28517       250  POPE      H4S           -38.0093145000        1.6445568662      -12.1282829716  MEMB      250             0.0000000000
     28518       250  POPE      C25           -39.4331968598        0.0473063013      -11.5897398790  MEMB      250             0.0000000000
     28519       250  POPE      H5R           -38.8260414591       -0.5562615054      -12.2978280896  MEMB      250             0.0000000000
     28520       250  POPE      H5S           -40.5236703546       -0.1424650459      -11.6855291007  MEMB      250             0.0000000000
     28521       250  POPE      C26           -39.0338384573       -0.3912537204      -10.1014439957  MEMB      250             0.0000000000
     28522       250  POPE      H6R           -38.0507142205       -0.0027925308       -9.7595583494  MEMB      250             0.0000000000
     28523       250  POPE      H6S           -38.9791136854       -1.4984258014      -10.0273078986  MEMB      250             0.0000000000
     28524       250  POPE      C27           -40.0211296379        0.0993715631       -9.0304755113  MEMB      250             0.0000000000
     28525       250  POPE      H7R           -41.0563916251       -0.1898999012       -9.3113236184  MEMB      250             0.0000000000
     28526       250  POPE      H7S           -39.9268478046        1.2060390635       -9.0036622977  MEMB      250             0.0000000000
     28527       250  POPE      C28           -39.7558166111       -0.5474076386       -7.5932203912  MEMB      250             0.0000000000
     28528       250  POPE      H8R           -38.7181809711       -0.2532993802       -7.3265118244  MEMB      250             0.0000000000
     28529       250  POPE      H8S           -39.9630457356       -1.6357811902       -7.6758042168  MEMB      250             0.0000000000
     28530       250  POPE      C29           -40.6835057638        0.2698765589       -6.6524761563  MEMB      250             0.0000000000
     28531       250  POPE      H91           -40.2514091122        1.1331151509       -6.1251130497  MEMB      250             0.0000000000
     28532       250  POPE      C210          -41.9454297389       -0.0827877118       -6.3984142696  MEMB      250             0.0000000000
     28533       250  POPE      H101          -42.4502984978        0.6323191720       -5.7322845399  MEMB      250             0.0000000000
     28534       250  POPE      C211          -42.7732872768       -1.2533315965       -6.8595173051  MEMB      250             0.0000000000
     28535       250  POPE      H11R          -42.1708411464       -1.8257201710       -7.5969120687  MEMB      250             0.0000000000
     28536       250  POPE      H11S          -43.7392692336       -0.9630440693       -7.3252779472  MEMB      250             0.0000000000
     28537       250  POPE      C212          -43.1549711216       -2.0709209566       -5.5902799826  MEMB      250             0.0000000000
     28538       250  POPE      H12R          -44.1966057086       -2.4160634706       -5.7640463174  MEMB      250             0.0000000000
     28539       250  POPE      H12S          -43.2256345470       -1.3363329482       -4.7597929826  MEMB      250             0.0000000000
     28540       250  POPE      C213          -42.1245990124       -3.2085933195       -5.4010124153  MEMB      250             0.0000000000
     28541       250  POPE      H13R          -41.0960861011       -2.7919385562       -5.3473382921  MEMB      250             0.0000000000
     28542       250  POPE      H13S          -42.2827865141       -3.7952449612       -6.3311401099  MEMB      250             0.0000000000
     28543       250  POPE      C214          -42.3914882322       -4.1022803066       -4.2057935325  MEMB      250             0.0000000000
     28544       250  POPE      H14R          -41.6766294279       -4.9486373841       -4.2893283523  MEMB      250             0.0000000000
     28545       250  POPE      H14S          -43.4351945820       -4.4657402729       -4.0922393626  MEMB      250             0.0000000000
     28546       250  POPE      C215          -42.0748744714       -3.4347107399       -2.8879650551  MEMB      250             0.0000000000
     28547       250  POPE      H15R          -42.3477810218       -2.3579332415       -2.9077824340  MEMB      250             0.0000000000
     28548       250  POPE      H15S          -40.9922065047       -3.4982925028       -2.6469070796  MEMB      250             0.0000000000
     28549       250  POPE      C216          -42.8098584187       -4.1469522272       -1.7222389677  MEMB      250             0.0000000000
     28550       250  POPE      H16R          -42.5538212586       -5.2280173356       -1.7302312727  MEMB      250             0.0000000000
     28551       250  POPE      H16S          -43.9148576656       -4.0367284500       -1.6883452498  MEMB      250             0.0000000000
     28552       250  POPE      C217          -42.1467497756       -3.5729906245       -0.4701155270  MEMB      250             0.0000000000
     28553       250  POPE      H17R          -42.2947595202       -2.4739035927       -0.4036177372  MEMB      250             0.0000000000
     28554       250  POPE      H17S          -41.0932819377       -3.9021928343       -0.5972100397  MEMB      250             0.0000000000
     28555       250  POPE      C218          -42.7278140175       -4.2361238892        0.7859587515  MEMB      250             0.0000000000
     28556       250  POPE      H18R          -42.4404130384       -3.6688532202        1.6969615922  MEMB      250             0.0000000000
     28557       250  POPE      H18S          -42.3990509425       -5.2897358033        0.9129895960  MEMB      250             0.0000000000
     28558       250  POPE      H18T          -43.8345613993       -4.2143255077        0.6913167231  MEMB      250             0.0000000000
     28559       250  POPE      C33           -44.3193809762        2.3188837497      -12.6924811941  MEMB      250             0.0000000000
     28560       250  POPE      H3X           -44.0134374400        1.2620674042      -12.5380182572  MEMB      250             0.0000000000
     28561       250  POPE      H3Y           -45.1876172699        2.5163374449      -12.0280279002  MEMB      250             0.0000000000
     28562       250  POPE      C34           -43.1139887575        3.2386187569      -12.2928775912  MEMB      250             0.0000000000
     28563       250  POPE      H4X           -43.3865375359        4.3130772609      -12.3675594209  MEMB      250             0.0000000000
     28564       250  POPE      H4Y           -42.2136280889        2.9280549051      -12.8649105410  MEMB      250             0.0000000000
     28565       250  POPE      C35           -42.8567415623        3.1438974342      -10.7648122829  MEMB      250             0.0000000000
     28566       250  POPE      H5X           -41.8665352109        3.6107804913      -10.5755172980  MEMB      250             0.0000000000
     28567       250  POPE      H5Y           -42.6429664758        2.0769275978      -10.5407663420  MEMB      250             0.0000000000
     28568       250  POPE      C36           -43.9318087865        3.8244086538       -9.8861837986  MEMB      250             0.0000000000
     28569       250  POPE      H6X           -44.9700018579        3.4776497400      -10.0765370420  MEMB      250             0.0000000000
     28570       250  POPE      H6Y           -43.7897372598        4.8992070584      -10.1289700986  MEMB      250             0.0000000000
     28571       250  POPE      C37           -43.7226525587        3.6196923762       -8.4070777703  MEMB      250             0.0000000000
     28572       250  POPE      H7X           -42.8432872734        4.2508351983       -8.1566852686  MEMB      250             0.0000000000
     28573       250  POPE      H7Y           -43.5853892285        2.5290153392       -8.2461321614  MEMB      250             0.0000000000
     28574       250  POPE      C38           -44.8763720513        4.0619635150       -7.4930406005  MEMB      250             0.0000000000
     28575       250  POPE      H8X           -45.5205431160        3.1839451660       -7.2729311154  MEMB      250             0.0000000000
     28576       250  POPE      H8Y           -45.4740368194        4.8321994567       -8.0258200312  MEMB      250             0.0000000000
     28577       250  POPE      C39           -44.3517432460        4.7370973645       -6.1949814701  MEMB      250             0.0000000000
     28578       250  POPE      H9X           -45.2466140329        5.3164223082       -5.8820755280  MEMB      250             0.0000000000
     28579       250  POPE      H9Y           -43.5721056016        5.5191740999       -6.3168087008  MEMB      250             0.0000000000
     28580       250  POPE      C310          -43.9170390598        3.7889739629       -4.9930971132  MEMB      250             0.0000000000
     28581       250  POPE      H10X          -43.4160464189        4.3977869422       -4.2103619207  MEMB      250             0.0000000000
     28582       250  POPE      H10Y          -43.0530245514        3.2183533715       -5.3958274686  MEMB      250             0.0000000000
     28583       250  POPE      C311          -45.0997621421        2.9815961746       -4.4207764056  MEMB      250             0.0000000000
     28584       250  POPE      H11X          -45.7565293209        2.4490526024       -5.1414528524  MEMB      250             0.0000000000
     28585       250  POPE      H11Y          -45.8285089515        3.6911629618       -3.9738264863  MEMB      250             0.0000000000
     28586       250  POPE      C312          -44.7175633581        1.8859057672       -3.4158050863  MEMB      250             0.0000000000
     28587       250  POPE      H12X          -44.1652532933        1.0509720344       -3.8976369975  MEMB      250             0.0000000000
     28588       250  POPE      H12Y          -45.6027203499        1.3652203169       -2.9918894454  MEMB      250             0.0000000000
     28589       250  POPE      C313          -44.0258231429        2.5233323422       -2.1538394508  MEMB      250             0.0000000000
     28590       250  POPE      H13X          -44.6890111358        3.3255876252       -1.7653943030  MEMB      250             0.0000000000
     28591       250  POPE      H13Y          -43.0980078623        3.0492319595       -2.4651400864  MEMB      250             0.0000000000
     28592       250  POPE      C314          -43.7177403225        1.4697757599       -1.0422714873  MEMB      250             0.0000000000
     28593       250  POPE      H14X          -43.2194191834        0.6116897854       -1.5419565877  MEMB      250             0.0000000000
     28594       250  POPE      H14Y          -44.6553870968        1.0937619742       -0.5799369873  MEMB      250             0.0000000000
     28595       250  POPE      C315          -42.8207957595        1.9432809121        0.0942997302  MEMB      250             0.0000000000
     28596       250  POPE      H15X          -42.2848054743        1.0655167490        0.5144960047  MEMB      250             0.0000000000
     28597       250  POPE      H15Y          -43.4613211362        2.4103096570        0.8727140779  MEMB      250             0.0000000000
     28598       250  POPE      C316          -41.8007896166        3.0248426994       -0.1997536199  MEMB      250             0.0000000000
     28599       250  POPE      H16X          -42.2161740692        4.0412385022       -0.3692125771  MEMB      250             0.0000000000
     28600       250  POPE      H16Y          -41.1864291557        2.6970600687       -1.0654547759  MEMB      250             0.0000000000
     28601       250  POPE      H16Z          -41.0266848228        3.2574065569        0.5624780210  MEMB      250             0.0000000000
     28602       251  POPE      N             -31.6935964883       14.4770748673      -21.0510939536  MEMB      251             0.0000000000
     28603       251  POPE      HN1           -32.1050782039       15.2541109427      -21.6065196613  MEMB      251             0.0000000000
     28604       251  POPE      HN2           -30.7171122987       14.1843518836      -21.2569865651  MEMB      251             0.0000000000
     28605       251  POPE      HN3           -32.2676753415       13.6242824865      -21.2085064794  MEMB      251             0.0000000000
     28606       251  POPE      C12           -31.5807966113       14.8631554044      -19.5918871846  MEMB      251             0.0000000000
     28607       251  POPE      H12A          -31.0532678168       15.8358587658      -19.4924773844  MEMB      251             0.0000000000
     28608       251  POPE      H12B          -31.1347799867       14.0271241454      -19.0118511005  MEMB      251             0.0000000000
     28609       251  POPE      C11           -32.9514084833       14.9889184306      -18.9562333208  MEMB      251             0.0000000000
     28610       251  POPE      H11A          -33.6110863394       15.6442066717      -19.5642986790  MEMB      251             0.0000000000
     28611       251  POPE      H11B          -32.7364768810       15.5081160048      -17.9978183009  MEMB      251             0.0000000000
     28612       251  POPE      P             -35.2015899473       13.7810453258      -18.4765702299  MEMB      251             0.0000000000
     28613       251  POPE      O13           -35.5611669269       12.8963997354      -17.3392105041  MEMB      251             0.0000000000
     28614       251  POPE      O14           -35.7934061648       13.5131625241      -19.8196555501  MEMB      251             0.0000000000
     28615       251  POPE      O11           -35.4003267193       15.2677306172      -18.0591912302  MEMB      251             0.0000000000
     28616       251  POPE      O12           -33.6379364043       13.7850160637      -18.7061580236  MEMB      251             0.0000000000
     28617       251  POPE      C1            -36.6907973584       15.6972384940      -17.5919462844  MEMB      251             0.0000000000
     28618       251  POPE      HA            -37.3622519204       14.8845209961      -17.2412895542  MEMB      251             0.0000000000
     28619       251  POPE      HB            -37.1554920505       16.3390316080      -18.3707155996  MEMB      251             0.0000000000
     28620       251  POPE      C2            -36.4044587352       16.5804602524      -16.3862600807  MEMB      251             0.0000000000
     28621       251  POPE      HS            -35.7490826479       17.4254181798      -16.6876721875  MEMB      251             0.0000000000
     28622       251  POPE      O21           -35.8065429212       15.6623628885      -15.5111718440  MEMB      251             0.0000000000
     28623       251  POPE      C21           -34.8639315730       16.1190461077      -14.6575537446  MEMB      251             0.0000000000
     28624       251  POPE      O22           -34.4186873915       17.2609899627      -14.5878941536  MEMB      251             0.0000000000
     28625       251  POPE      C22           -34.2407676384       14.9694220481      -13.7786287288  MEMB      251             0.0000000000
     28626       251  POPE      H2R           -33.7650857825       15.4411219744      -12.8923179149  MEMB      251             0.0000000000
     28627       251  POPE      H2S           -33.4360400330       14.4570117013      -14.3479883358  MEMB      251             0.0000000000
     28628       251  POPE      C3            -37.7338977813       17.1061105819      -15.7197938217  MEMB      251             0.0000000000
     28629       251  POPE      HX            -38.4441102175       16.2537008984      -15.6622005588  MEMB      251             0.0000000000
     28630       251  POPE      HY            -38.2364265973       17.8573772793      -16.3658465299  MEMB      251             0.0000000000
     28631       251  POPE      O31           -37.3632722205       17.6654317215      -14.4164152601  MEMB      251             0.0000000000
     28632       251  POPE      C31           -38.2126817591       17.4413588791      -13.3407072042  MEMB      251             0.0000000000
     28633       251  POPE      O32           -39.0625686995       16.5927371972      -13.2999819204  MEMB      251             0.0000000000
     28634       251  POPE      C32           -37.8348640921       18.4682717044      -12.2122910562  MEMB      251             0.0000000000
     28635       251  POPE      H2X           -38.7202510280       18.5578858469      -11.5471743529  MEMB      251             0.0000000000
     28636       251  POPE      H2Y           -37.4223212983       19.3681712977      -12.7165828798  MEMB      251             0.0000000000
     28637       251  POPE      C23           -35.3597063512       14.0456727493      -13.2311464154  MEMB      251             0.0000000000
     28638       251  POPE      H3R           -35.6564316118       13.4716539539      -14.1349037073  MEMB      251             0.0000000000
     28639       251  POPE      H3S           -36.2608126862       14.4855819748      -12.7528070989  MEMB      251             0.0000000000
     28640       251  POPE      C24           -34.8890425150       13.0243156772      -12.1868013676  MEMB      251             0.0000000000
     28641       251  POPE      H4R           -34.6428120575       13.4619403135      -11.1957534748  MEMB      251             0.0000000000
     28642       251  POPE      H4S           -33.9044733795       12.6425660261      -12.5320722487  MEMB      251             0.0000000000
     28643       251  POPE      C25           -35.9296156545       11.8462160904      -11.9021842705  MEMB      251             0.0000000000
     28644       251  POPE      H5R           -36.3785586346       11.4890239297      -12.8535961091  MEMB      251             0.0000000000
     28645       251  POPE      H5S           -36.7856235658       12.3370068139      -11.3916003788  MEMB      251             0.0000000000
     28646       251  POPE      C26           -35.3901413249       10.6848971279      -11.0267443799  MEMB      251             0.0000000000
     28647       251  POPE      H6R           -34.9289108432       10.9681365793      -10.0565057950  MEMB      251             0.0000000000
     28648       251  POPE      H6S           -34.6401356109       10.2001765724      -11.6876965077  MEMB      251             0.0000000000
     28649       251  POPE      C27           -36.4593331579        9.5995284380      -10.7904884085  MEMB      251             0.0000000000
     28650       251  POPE      H7R           -36.0433787063        8.5851097086      -10.6108833083  MEMB      251             0.0000000000
     28651       251  POPE      H7S           -37.1281134187        9.3787940571      -11.6497497109  MEMB      251             0.0000000000
     28652       251  POPE      C28           -37.3426385144        9.9536869354       -9.5334374625  MEMB      251             0.0000000000
     28653       251  POPE      H8R           -38.2126713856        9.2698333661       -9.6319648787  MEMB      251             0.0000000000
     28654       251  POPE      H8S           -37.7081470931       10.9942468751       -9.6674503489  MEMB      251             0.0000000000
     28655       251  POPE      C29           -36.6423571972        9.8590319417       -8.2218203110  MEMB      251             0.0000000000
     28656       251  POPE      H91           -35.6507332613       10.2964480534       -8.0338067022  MEMB      251             0.0000000000
     28657       251  POPE      C210          -37.2271166457        9.3913553979       -7.1290096113  MEMB      251             0.0000000000
     28658       251  POPE      H101          -36.5009476846        9.2277215030       -6.3191319437  MEMB      251             0.0000000000
     28659       251  POPE      C211          -38.5835706522        8.8560358783       -6.8862119686  MEMB      251             0.0000000000
     28660       251  POPE      H11R          -38.3653542976        7.9353038196       -6.3040129820  MEMB      251             0.0000000000
     28661       251  POPE      H11S          -39.0637331647        8.4759387038       -7.8131912972  MEMB      251             0.0000000000
     28662       251  POPE      C212          -39.5147484530        9.7970076772       -6.1126551137  MEMB      251             0.0000000000
     28663       251  POPE      H12R          -40.5103318107        9.3402754464       -5.9268309571  MEMB      251             0.0000000000
     28664       251  POPE      H12S          -39.5676485510       10.7420069891       -6.6944616634  MEMB      251             0.0000000000
     28665       251  POPE      C213          -39.0192931059       10.4542782457       -4.7888641979  MEMB      251             0.0000000000
     28666       251  POPE      H13R          -38.2310912832       11.2014554480       -5.0229256483  MEMB      251             0.0000000000
     28667       251  POPE      H13S          -38.5083254494        9.8004773353       -4.0500961905  MEMB      251             0.0000000000
     28668       251  POPE      C214          -40.1434780424       11.2625114046       -4.1305494747  MEMB      251             0.0000000000
     28669       251  POPE      H14R          -41.0705544385       10.6960356177       -3.8982660518  MEMB      251             0.0000000000
     28670       251  POPE      H14S          -40.5531285807       12.0959214881       -4.7404144288  MEMB      251             0.0000000000
     28671       251  POPE      C215          -39.7708799345       11.7990919801       -2.7853260641  MEMB      251             0.0000000000
     28672       251  POPE      H15R          -39.8017992407       10.9780889542       -2.0374499839  MEMB      251             0.0000000000
     28673       251  POPE      H15S          -40.4940227655       12.5518720564       -2.4049225310  MEMB      251             0.0000000000
     28674       251  POPE      C216          -38.4470656026       12.5401889821       -2.6693412368  MEMB      251             0.0000000000
     28675       251  POPE      H16R          -38.2971112946       13.1750591316       -3.5686610897  MEMB      251             0.0000000000
     28676       251  POPE      H16S          -37.6043395341       11.8196552308       -2.7398043290  MEMB      251             0.0000000000
     28677       251  POPE      C217          -38.1272772521       13.2769410388       -1.3172727196  MEMB      251             0.0000000000
     28678       251  POPE      H17R          -37.0543307231       13.2452770245       -1.0307345885  MEMB      251             0.0000000000
     28679       251  POPE      H17S          -38.7433195061       12.7309613081       -0.5711358656  MEMB      251             0.0000000000
     28680       251  POPE      C218          -38.5286464507       14.7339374191       -1.4036019119  MEMB      251             0.0000000000
     28681       251  POPE      H18R          -39.2930216803       14.9247482270       -2.1869552490  MEMB      251             0.0000000000
     28682       251  POPE      H18S          -37.5638922438       15.2551532760       -1.5822215317  MEMB      251             0.0000000000
     28683       251  POPE      H18T          -38.8938823839       15.0646788562       -0.4078445414  MEMB      251             0.0000000000
     28684       251  POPE      C33           -36.5690136500       17.9682587936      -11.4895704516  MEMB      251             0.0000000000
     28685       251  POPE      H3X           -36.1336259760       18.8085958114      -10.9076837303  MEMB      251             0.0000000000
     28686       251  POPE      H3Y           -35.7930669668       17.6378272534      -12.2127871556  MEMB      251             0.0000000000
     28687       251  POPE      C34           -36.8685281625       16.8203427883      -10.5759977367  MEMB      251             0.0000000000
     28688       251  POPE      H4X           -37.3899057286       15.9184273912      -10.9620474147  MEMB      251             0.0000000000
     28689       251  POPE      H4Y           -37.6136299519       17.0706635725       -9.7908322125  MEMB      251             0.0000000000
     28690       251  POPE      C35           -35.5125365472       16.2260716902       -9.9048923794  MEMB      251             0.0000000000
     28691       251  POPE      H5X           -35.0508873947       16.9963748627       -9.2508018336  MEMB      251             0.0000000000
     28692       251  POPE      H5Y           -34.8366113376       15.7913436891      -10.6720024772  MEMB      251             0.0000000000
     28693       251  POPE      C36           -35.7465850608       14.9431435586       -9.0578297491  MEMB      251             0.0000000000
     28694       251  POPE      H6X           -34.8244514510       14.3234747842       -9.0589099278  MEMB      251             0.0000000000
     28695       251  POPE      H6Y           -36.5729141362       14.4177794414       -9.5827049047  MEMB      251             0.0000000000
     28696       251  POPE      C37           -36.0574979472       15.3244448957       -7.6006883565  MEMB      251             0.0000000000
     28697       251  POPE      H7X           -36.9674912001       15.9611187825       -7.6303438687  MEMB      251             0.0000000000
     28698       251  POPE      H7Y           -35.2651175537       15.8697393636       -7.0447139287  MEMB      251             0.0000000000
     28699       251  POPE      C38           -36.3754075183       14.0743215344       -6.7360497976  MEMB      251             0.0000000000
     28700       251  POPE      H8X           -37.0862954905       13.4590252559       -7.3279699647  MEMB      251             0.0000000000
     28701       251  POPE      H8Y           -36.8857198052       14.2481644088       -5.7646177392  MEMB      251             0.0000000000
     28702       251  POPE      C39           -35.1207210607       13.2225076202       -6.3314987484  MEMB      251             0.0000000000
     28703       251  POPE      H9X           -34.6044355100       12.8075990845       -7.2234743138  MEMB      251             0.0000000000
     28704       251  POPE      H9Y           -35.4884599464       12.3495773659       -5.7509110252  MEMB      251             0.0000000000
     28705       251  POPE      C310          -34.0606670838       13.9357912727       -5.3663496558  MEMB      251             0.0000000000
     28706       251  POPE      H10X          -34.5015106612       14.5768422760       -4.5732345097  MEMB      251             0.0000000000
     28707       251  POPE      H10Y          -33.6415012664       14.7353148775       -6.0139480413  MEMB      251             0.0000000000
     28708       251  POPE      C311          -32.9415495125       13.0210736714       -4.7596525670  MEMB      251             0.0000000000
     28709       251  POPE      H11X          -32.0990183955       13.6623305157       -4.4231224030  MEMB      251             0.0000000000
     28710       251  POPE      H11Y          -32.6549621411       12.3272393661       -5.5786658647  MEMB      251             0.0000000000
     28711       251  POPE      C312          -33.4452418448       12.1907037557       -3.6045781428  MEMB      251             0.0000000000
     28712       251  POPE      H12X          -32.7615015299       11.3408737682       -3.3933690663  MEMB      251             0.0000000000
     28713       251  POPE      H12Y          -34.3959926122       11.7947131195       -4.0212134038  MEMB      251             0.0000000000
     28714       251  POPE      C313          -33.8833747184       12.9400007280       -2.3244363021  MEMB      251             0.0000000000
     28715       251  POPE      H13X          -34.6600084380       13.6712306462       -2.6350222160  MEMB      251             0.0000000000
     28716       251  POPE      H13Y          -33.0411774009       13.5377300198       -1.9148696966  MEMB      251             0.0000000000
     28717       251  POPE      C314          -34.4115937783       11.9327425252       -1.2570283878  MEMB      251             0.0000000000
     28718       251  POPE      H14X          -33.9552941371       10.9249799462       -1.3596243988  MEMB      251             0.0000000000
     28719       251  POPE      H14Y          -35.5209021119       11.9560708645       -1.2003502528  MEMB      251             0.0000000000
     28720       251  POPE      C315          -33.8844858771       12.3796736555        0.1742036190  MEMB      251             0.0000000000
     28721       251  POPE      H15X          -32.7767905929       12.2953284349        0.1594473221  MEMB      251             0.0000000000
     28722       251  POPE      H15Y          -34.3038730459       11.6821095767        0.9304051706  MEMB      251             0.0000000000
     28723       251  POPE      C316          -34.2738120773       13.7536074951        0.5983565789  MEMB      251             0.0000000000
     28724       251  POPE      H16X          -35.3650187508       13.9232289888        0.4766291796  MEMB      251             0.0000000000
     28725       251  POPE      H16Y          -33.7774101923       14.5792369313        0.0449636457  MEMB      251             0.0000000000
     28726       251  POPE      H16Z          -33.9042058916       13.8133627895        1.6443685246  MEMB      251             0.0000000000
     28727       252  POPE      N              20.0189308783       36.6682947729      -18.4448046934  MEMB      252             0.0000000000
     28728       252  POPE      HN1            19.9050007784       36.7897726494      -19.4713830499  MEMB      252             0.0000000000
     28729       252  POPE      HN2            19.6966612321       37.5490416646      -17.9953302552  MEMB      252             0.0000000000
     28730       252  POPE      HN3            21.0130198966       36.5067684079      -18.1853892681  MEMB      252             0.0000000000
     28731       252  POPE      C12            19.0914065466       35.5504827871      -17.9850320581  MEMB      252             0.0000000000
     28732       252  POPE      H12A           18.9265216436       35.7485381594      -16.9043341385  MEMB      252             0.0000000000
     28733       252  POPE      H12B           19.5917686643       34.5899637567      -18.2327458537  MEMB      252             0.0000000000
     28734       252  POPE      C11            17.7033987751       35.6214297553      -18.6205287918  MEMB      252             0.0000000000
     28735       252  POPE      H11A           16.9296744098       34.9627422156      -18.1713046116  MEMB      252             0.0000000000
     28736       252  POPE      H11B           17.8085538040       35.3184771599      -19.6842407642  MEMB      252             0.0000000000
     28737       252  POPE      P              16.0354431062       37.4642741468      -19.4715972271  MEMB      252             0.0000000000
     28738       252  POPE      O13            14.8852394887       36.6609379359      -19.1336887350  MEMB      252             0.0000000000
     28739       252  POPE      O14            16.4543269514       37.6608566176      -20.9075732691  MEMB      252             0.0000000000
     28740       252  POPE      O11            15.5970793494       38.8727574989      -18.8495115322  MEMB      252             0.0000000000
     28741       252  POPE      O12            17.2909909570       37.0092088460      -18.5872636903  MEMB      252             0.0000000000
     28742       252  POPE      C1             15.9664011036       39.3226468107      -17.6004651394  MEMB      252             0.0000000000
     28743       252  POPE      HA             16.0685353048       40.4283435562      -17.6368530236  MEMB      252             0.0000000000
     28744       252  POPE      HB             16.9710256251       38.9670384652      -17.2864695311  MEMB      252             0.0000000000
     28745       252  POPE      C2             14.7232870458       39.2085953816      -16.5989301038  MEMB      252             0.0000000000
     28746       252  POPE      HS             14.7620353479       39.8946069994      -15.7258850606  MEMB      252             0.0000000000
     28747       252  POPE      O21            14.6646191987       37.8658581874      -16.0646341109  MEMB      252             0.0000000000
     28748       252  POPE      C21            15.5672314187       37.3990233861      -15.1766457928  MEMB      252             0.0000000000
     28749       252  POPE      O22            16.6271994528       37.9539990461      -14.8741316972  MEMB      252             0.0000000000
     28750       252  POPE      C22            15.1249582625       36.0069682459      -14.6069423855  MEMB      252             0.0000000000
     28751       252  POPE      H2R            15.0043598565       35.2935869476      -15.4500698852  MEMB      252             0.0000000000
     28752       252  POPE      H2S            14.2723921917       36.1894951092      -13.9183670088  MEMB      252             0.0000000000
     28753       252  POPE      C3             13.5220937521       39.5213139796      -17.4126941290  MEMB      252             0.0000000000
     28754       252  POPE      HX             13.2654582204       38.6851694576      -18.0977645151  MEMB      252             0.0000000000
     28755       252  POPE      HY             13.7850210034       40.4987879019      -17.8706626838  MEMB      252             0.0000000000
     28756       252  POPE      O31            12.4979034220       39.8206077763      -16.4411877912  MEMB      252             0.0000000000
     28757       252  POPE      C31            11.8085403570       38.8166781246      -16.0116825616  MEMB      252             0.0000000000
     28758       252  POPE      O32            11.8135080438       37.6564932564      -16.5152574965  MEMB      252             0.0000000000
     28759       252  POPE      C32            10.8165054614       39.1610432493      -14.8793918753  MEMB      252             0.0000000000
     28760       252  POPE      H2X             9.8635295692       38.6939702153      -15.2080257612  MEMB      252             0.0000000000
     28761       252  POPE      H2Y            10.6833617671       40.2637799917      -14.9031731456  MEMB      252             0.0000000000
     28762       252  POPE      C23            16.2092821762       35.4330788564      -13.7090705846  MEMB      252             0.0000000000
     28763       252  POPE      H3R            16.3111229421       36.0332349335      -12.7796825238  MEMB      252             0.0000000000
     28764       252  POPE      H3S            17.1645938349       35.3603092933      -14.2715694807  MEMB      252             0.0000000000
     28765       252  POPE      C24            15.7223634589       34.0317907077      -13.2730797750  MEMB      252             0.0000000000
     28766       252  POPE      H4R            15.6715696839       33.5539642662      -14.2747894571  MEMB      252             0.0000000000
     28767       252  POPE      H4S            14.7407317333       34.1142244797      -12.7593431296  MEMB      252             0.0000000000
     28768       252  POPE      C25            16.6911842326       33.2325032399      -12.4472706128  MEMB      252             0.0000000000
     28769       252  POPE      H5R            16.9245469668       33.8767592115      -11.5727441078  MEMB      252             0.0000000000
     28770       252  POPE      H5S            17.6174436397       33.1900904395      -13.0592885815  MEMB      252             0.0000000000
     28771       252  POPE      C26            16.2223110127       31.8390648078      -11.9771888241  MEMB      252             0.0000000000
     28772       252  POPE      H6R            17.1480804351       31.2274423571      -11.9207047955  MEMB      252             0.0000000000
     28773       252  POPE      H6S            15.5628577464       31.3708763576      -12.7389252918  MEMB      252             0.0000000000
     28774       252  POPE      C27            15.5388876091       31.8704734709      -10.6063777613  MEMB      252             0.0000000000
     28775       252  POPE      H7R            15.1133398505       30.8453718950      -10.5574171210  MEMB      252             0.0000000000
     28776       252  POPE      H7S            14.7582094737       32.6600045585      -10.5676077430  MEMB      252             0.0000000000
     28777       252  POPE      C28            16.4114846031       31.9681366323       -9.3625289935  MEMB      252             0.0000000000
     28778       252  POPE      H8R            17.1813388777       32.7091407932       -9.6667615124  MEMB      252             0.0000000000
     28779       252  POPE      H8S            17.0262634447       31.0444918329       -9.3055320011  MEMB      252             0.0000000000
     28780       252  POPE      C29            15.5904116915       32.1709126528       -8.0862503844  MEMB      252             0.0000000000
     28781       252  POPE      H91            14.9402315201       31.3508028872       -7.7475988763  MEMB      252             0.0000000000
     28782       252  POPE      C210           15.5372128737       33.2421902181       -7.2732073888  MEMB      252             0.0000000000
     28783       252  POPE      H101           14.7592986988       33.3989473779       -6.5114481866  MEMB      252             0.0000000000
     28784       252  POPE      C211           16.3316339734       34.5378510197       -7.3521325271  MEMB      252             0.0000000000
     28785       252  POPE      H11R           15.7395433729       35.3443939422       -7.8350798724  MEMB      252             0.0000000000
     28786       252  POPE      H11S           17.3397297973       34.3931965978       -7.7961367338  MEMB      252             0.0000000000
     28787       252  POPE      C212           16.5281463287       35.0824703119       -5.8826636668  MEMB      252             0.0000000000
     28788       252  POPE      H12R           17.3421439065       34.5267040113       -5.3699724119  MEMB      252             0.0000000000
     28789       252  POPE      H12S           15.5838419420       34.9897946780       -5.3047167900  MEMB      252             0.0000000000
     28790       252  POPE      C213           16.9282032243       36.5480992942       -5.7614032570  MEMB      252             0.0000000000
     28791       252  POPE      H13R           16.1160895108       37.2366441760       -6.0787338363  MEMB      252             0.0000000000
     28792       252  POPE      H13S           17.8376133439       36.8424688382       -6.3276551502  MEMB      252             0.0000000000
     28793       252  POPE      C214           17.2522761078       36.9215602006       -4.3510982667  MEMB      252             0.0000000000
     28794       252  POPE      H14R           17.7811788517       37.8985862411       -4.3529641119  MEMB      252             0.0000000000
     28795       252  POPE      H14S           17.9538583350       36.2212053650       -3.8494945974  MEMB      252             0.0000000000
     28796       252  POPE      C215           16.0203776769       36.9356286319       -3.4481648832  MEMB      252             0.0000000000
     28797       252  POPE      H15R           15.5912867391       35.9125134607       -3.5067939623  MEMB      252             0.0000000000
     28798       252  POPE      H15S           15.3421393362       37.6449363980       -3.9689299508  MEMB      252             0.0000000000
     28799       252  POPE      C216           16.2753527894       37.4011102845       -1.9632512445  MEMB      252             0.0000000000
     28800       252  POPE      H16R           16.7371213328       38.3999640829       -2.1161584989  MEMB      252             0.0000000000
     28801       252  POPE      H16S           17.0893155040       36.7620468938       -1.5590430935  MEMB      252             0.0000000000
     28802       252  POPE      C217           15.0611858828       37.5902650603       -1.0574310245  MEMB      252             0.0000000000
     28803       252  POPE      H17R           15.2609390506       38.0841618211       -0.0825020065  MEMB      252             0.0000000000
     28804       252  POPE      H17S           14.6544624974       36.5711631280       -0.8832807369  MEMB      252             0.0000000000
     28805       252  POPE      C218           13.9372065769       38.4188251405       -1.7011216306  MEMB      252             0.0000000000
     28806       252  POPE      H18R           13.0972870804       38.3581066087       -0.9764355252  MEMB      252             0.0000000000
     28807       252  POPE      H18S           13.6011983275       37.9068629352       -2.6281129707  MEMB      252             0.0000000000
     28808       252  POPE      H18T           14.3147776778       39.3641753681       -2.1461774983  MEMB      252             0.0000000000
     28809       252  POPE      C33            11.4151464248       38.7031958851      -13.5424092733  MEMB      252             0.0000000000
     28810       252  POPE      H3X            11.9230109049       37.7170344382      -13.6047018299  MEMB      252             0.0000000000
     28811       252  POPE      H3Y            10.6118404681       38.4813391364      -12.8076988195  MEMB      252             0.0000000000
     28812       252  POPE      C34            12.3941407443       39.7903396941      -12.8860354773  MEMB      252             0.0000000000
     28813       252  POPE      H4X            11.9033310100       40.7859611750      -12.8395139271  MEMB      252             0.0000000000
     28814       252  POPE      H4Y            13.2022512371       39.8682785816      -13.6444575921  MEMB      252             0.0000000000
     28815       252  POPE      C35            13.0201410244       39.5446916439      -11.5190109185  MEMB      252             0.0000000000
     28816       252  POPE      H5X            12.3008645262       39.7413861387      -10.6954371748  MEMB      252             0.0000000000
     28817       252  POPE      H5Y            13.8864615696       40.2400096534      -11.5375228785  MEMB      252             0.0000000000
     28818       252  POPE      C36            13.7624662762       38.2009377457      -11.5271093041  MEMB      252             0.0000000000
     28819       252  POPE      H6X            14.7226033694       38.4339116799      -11.0189943878  MEMB      252             0.0000000000
     28820       252  POPE      H6Y            14.0307749828       37.8532894217      -12.5476349150  MEMB      252             0.0000000000
     28821       252  POPE      C37            13.0774255847       37.0246334184      -10.8601940723  MEMB      252             0.0000000000
     28822       252  POPE      H7X            13.5743841736       36.0708688162      -11.1389160317  MEMB      252             0.0000000000
     28823       252  POPE      H7Y            12.0590282794       37.0031455437      -11.3037321797  MEMB      252             0.0000000000
     28824       252  POPE      C38            13.1089223455       37.0031703308       -9.3186151763  MEMB      252             0.0000000000
     28825       252  POPE      H8X            12.8690696874       38.0217531394       -8.9454123653  MEMB      252             0.0000000000
     28826       252  POPE      H8Y            14.1805506189       36.8595361973       -9.0630703956  MEMB      252             0.0000000000
     28827       252  POPE      C39            12.1891351670       35.8784530610       -8.8232075443  MEMB      252             0.0000000000
     28828       252  POPE      H9X            12.5582306626       34.9835955487       -9.3684783199  MEMB      252             0.0000000000
     28829       252  POPE      H9Y            11.1549771471       36.0668639572       -9.1828457033  MEMB      252             0.0000000000
     28830       252  POPE      C310           12.2285018032       35.5507623110       -7.3569520769  MEMB      252             0.0000000000
     28831       252  POPE      H10X           13.2883852982       35.3138740742       -7.1227467932  MEMB      252             0.0000000000
     28832       252  POPE      H10Y           11.6139673698       34.6275799214       -7.2906021041  MEMB      252             0.0000000000
     28833       252  POPE      C311           11.7611183291       36.6366174656       -6.3389912596  MEMB      252             0.0000000000
     28834       252  POPE      H11X           10.6613284818       36.7938071558       -6.3476586026  MEMB      252             0.0000000000
     28835       252  POPE      H11Y           12.1565337122       37.5557681852       -6.8218260897  MEMB      252             0.0000000000
     28836       252  POPE      C312           12.3218181511       36.4289841706       -4.8839089219  MEMB      252             0.0000000000
     28837       252  POPE      H12X           11.8638932092       37.2064146693       -4.2356589816  MEMB      252             0.0000000000
     28838       252  POPE      H12Y           13.4274468616       36.5062632533       -4.8068762150  MEMB      252             0.0000000000
     28839       252  POPE      C313           11.9347284492       35.1595724112       -4.1379800674  MEMB      252             0.0000000000
     28840       252  POPE      H13X           10.8888443264       34.8937444274       -4.4021450299  MEMB      252             0.0000000000
     28841       252  POPE      H13Y           11.9958397692       35.3597719079       -3.0468771997  MEMB      252             0.0000000000
     28842       252  POPE      C314           12.7932382123       33.8525080344       -4.3776557518  MEMB      252             0.0000000000
     28843       252  POPE      H14X           13.8290107998       34.2527075278       -4.3410947976  MEMB      252             0.0000000000
     28844       252  POPE      H14Y           12.6276907440       33.4305323970       -5.3919792981  MEMB      252             0.0000000000
     28845       252  POPE      C315           12.4757431652       32.7401730964       -3.3839487801  MEMB      252             0.0000000000
     28846       252  POPE      H15X           11.3934859946       32.4916129126       -3.4194192942  MEMB      252             0.0000000000
     28847       252  POPE      H15Y           12.6613229444       33.0125863226       -2.3229712718  MEMB      252             0.0000000000
     28848       252  POPE      C316           13.2278829041       31.4542743457       -3.6658078038  MEMB      252             0.0000000000
     28849       252  POPE      H16X           12.7663791584       30.6929284940       -3.0012129386  MEMB      252             0.0000000000
     28850       252  POPE      H16Y           14.3112040239       31.6421098498       -3.5062634459  MEMB      252             0.0000000000
     28851       252  POPE      H16Z           13.1981314348       31.1522937369       -4.7345656318  MEMB      252             0.0000000000
     28852       253  POPC      N              35.8138648970       23.7581573537      -20.3220217132  MEMB      253             0.0000000000
     28853       253  POPC      C12            36.1955765527       23.1937964143      -18.9310717843  MEMB      253             0.0000000000
     28854       253  POPC      H12A           36.9417941668       23.8720051834      -18.5443001488  MEMB      253             0.0000000000
     28855       253  POPC      H12B           36.6128738679       22.2254181305      -19.1645378225  MEMB      253             0.0000000000
     28856       253  POPC      C13            34.8336262852       22.9056421032      -20.9962331955  MEMB      253             0.0000000000
     28857       253  POPC      H13A           34.8786969523       22.9684636267      -22.0734621989  MEMB      253             0.0000000000
     28858       253  POPC      H13B           34.9368917703       21.8450061677      -20.8207690187  MEMB      253             0.0000000000
     28859       253  POPC      H13C           33.8145542601       23.1840651170      -20.7717940905  MEMB      253             0.0000000000
     28860       253  POPC      C14            35.2983463778       25.1571988887      -20.2893813850  MEMB      253             0.0000000000
     28861       253  POPC      H14A           34.3132242980       25.0782570131      -19.8538325176  MEMB      253             0.0000000000
     28862       253  POPC      H14B           35.9438851736       25.8498550467      -19.7698557784  MEMB      253             0.0000000000
     28863       253  POPC      H14C           35.1366414993       25.4320564949      -21.3212267017  MEMB      253             0.0000000000
     28864       253  POPC      C15            37.0592750387       23.7108763374      -21.2078897189  MEMB      253             0.0000000000
     28865       253  POPC      H15A           37.8406938769       24.3375241755      -20.8040366225  MEMB      253             0.0000000000
     28866       253  POPC      H15B           36.8055926142       23.9475946181      -22.2306358081  MEMB      253             0.0000000000
     28867       253  POPC      H15C           37.4153161290       22.6939056536      -21.1343684992  MEMB      253             0.0000000000
     28868       253  POPC      C11            35.1250232703       22.9973031132      -17.7796835407  MEMB      253             0.0000000000
     28869       253  POPC      H11A           34.9088258162       23.9874031816      -17.3244017592  MEMB      253             0.0000000000
     28870       253  POPC      H11B           35.5381436544       22.4253514642      -16.9214737133  MEMB      253             0.0000000000
     28871       253  POPC      P              32.4977783708       22.7228207836      -17.9308498211  MEMB      253             0.0000000000
     28872       253  POPC      O13            31.5971137515       21.6193723485      -18.5194466590  MEMB      253             0.0000000000
     28873       253  POPC      O14            32.2491327449       24.0963631472      -18.3852366194  MEMB      253             0.0000000000
     28874       253  POPC      O12            34.0507511508       22.3150254922      -18.3097948425  MEMB      253             0.0000000000
     28875       253  POPC      O11            32.3737862781       22.7201220377      -16.3283907224  MEMB      253             0.0000000000
     28876       253  POPC      C1             32.6208948930       23.7426425032      -15.4491159029  MEMB      253             0.0000000000
     28877       253  POPC      HA             31.6920468952       24.0646947013      -14.9315790756  MEMB      253             0.0000000000
     28878       253  POPC      HB             32.9424208193       24.6990243202      -15.9141707707  MEMB      253             0.0000000000
     28879       253  POPC      C2             33.6936245443       23.2964470982      -14.3884205091  MEMB      253             0.0000000000
     28880       253  POPC      HS             34.6088424114       22.9893907297      -14.9383420397  MEMB      253             0.0000000000
     28881       253  POPC      O21            33.1129756249       22.2320696443      -13.7335985312  MEMB      253             0.0000000000
     28882       253  POPC      C21            33.9715923972       21.3028281529      -13.2952867804  MEMB      253             0.0000000000
     28883       253  POPC      O22            35.1913513217       21.4371170390      -13.3834248973  MEMB      253             0.0000000000
     28884       253  POPC      C22            33.2856216336       20.0315032017      -12.7015382689  MEMB      253             0.0000000000
     28885       253  POPC      H2R            32.8416962381       19.5250606046      -13.5851483465  MEMB      253             0.0000000000
     28886       253  POPC      H2S            32.5533794729       20.3966917593      -11.9500197844  MEMB      253             0.0000000000
     28887       253  POPC      C3             34.0190584909       24.3583544065      -13.3716484211  MEMB      253             0.0000000000
     28888       253  POPC      HX             34.2907454761       25.3370884785      -13.8217443685  MEMB      253             0.0000000000
     28889       253  POPC      HY             34.7899123945       24.0136979167      -12.6496252993  MEMB      253             0.0000000000
     28890       253  POPC      O31            32.7421981613       24.6458368297      -12.6922965701  MEMB      253             0.0000000000
     28891       253  POPC      C31            32.8608595784       25.2196732149      -11.5245155110  MEMB      253             0.0000000000
     28892       253  POPC      O32            33.8365535931       25.6874852461      -11.0185220051  MEMB      253             0.0000000000
     28893       253  POPC      C32            31.4758184693       25.0575544941      -10.8583526679  MEMB      253             0.0000000000
     28894       253  POPC      H2X            30.8526484867       24.3649629329      -11.4635776225  MEMB      253             0.0000000000
     28895       253  POPC      H2Y            30.9934503762       26.0575530115      -10.8989125958  MEMB      253             0.0000000000
     28896       253  POPC      C23            34.2163925193       18.9997261282      -12.1215553225  MEMB      253             0.0000000000
     28897       253  POPC      H3R            34.9208165333       18.7427939578      -12.9413683407  MEMB      253             0.0000000000
     28898       253  POPC      H3S            33.6156855637       18.1132485787      -11.8255325220  MEMB      253             0.0000000000
     28899       253  POPC      C24            34.9540556381       19.3419264507      -10.7915720330  MEMB      253             0.0000000000
     28900       253  POPC      H4R            34.1409567521       19.8175872097      -10.2025581037  MEMB      253             0.0000000000
     28901       253  POPC      H4S            35.7800590716       20.0724326363      -10.9272176938  MEMB      253             0.0000000000
     28902       253  POPC      C25            35.4670439523       18.0616650449       -9.9682575566  MEMB      253             0.0000000000
     28903       253  POPC      H5R            36.3116521375       17.6299006240      -10.5466503105  MEMB      253             0.0000000000
     28904       253  POPC      H5S            34.6389851835       17.3221801672      -10.0107037032  MEMB      253             0.0000000000
     28905       253  POPC      C26            35.6716480887       18.4152686314       -8.5220828571  MEMB      253             0.0000000000
     28906       253  POPC      H6R            35.8929903403       17.5550445553       -7.8547421964  MEMB      253             0.0000000000
     28907       253  POPC      H6S            34.6236876089       18.6232156533       -8.2173574067  MEMB      253             0.0000000000
     28908       253  POPC      C27            36.6876686887       19.4835120732       -8.2657586366  MEMB      253             0.0000000000
     28909       253  POPC      H7R            36.2743926521       20.4301541977       -8.6748948970  MEMB      253             0.0000000000
     28910       253  POPC      H7S            37.6715263821       19.2594468672       -8.7306664456  MEMB      253             0.0000000000
     28911       253  POPC      C28            36.9382963750       19.8465641691       -6.8209568340  MEMB      253             0.0000000000
     28912       253  POPC      H8R            37.1409327201       18.8718756682       -6.3277616843  MEMB      253             0.0000000000
     28913       253  POPC      H8S            35.9528962201       20.2841432954       -6.5529421955  MEMB      253             0.0000000000
     28914       253  POPC      C29            38.0864857255       20.8799470845       -6.6828982433  MEMB      253             0.0000000000
     28915       253  POPC      H91            39.0718165454       20.4637505122       -6.9396147646  MEMB      253             0.0000000000
     28916       253  POPC      C210           38.1264808621       22.1642144986       -6.2774749112  MEMB      253             0.0000000000
     28917       253  POPC      H101           39.0910392019       22.6913943067       -6.2361423175  MEMB      253             0.0000000000
     28918       253  POPC      C211           36.9557167077       23.0127981647       -5.8497914344  MEMB      253             0.0000000000
     28919       253  POPC      H11R           37.3047417425       23.6227343564       -4.9892802959  MEMB      253             0.0000000000
     28920       253  POPC      H11S           36.1159674601       22.3987007324       -5.4598855499  MEMB      253             0.0000000000
     28921       253  POPC      C212           36.5132916730       23.9478815675       -6.9822572428  MEMB      253             0.0000000000
     28922       253  POPC      H12R           36.4530962069       23.5590398612       -8.0212471814  MEMB      253             0.0000000000
     28923       253  POPC      H12S           37.4202150508       24.5881680695       -7.0251998076  MEMB      253             0.0000000000
     28924       253  POPC      C213           35.2815241164       24.8290041441       -6.5750142226  MEMB      253             0.0000000000
     28925       253  POPC      H13R           34.5715347475       24.1432555259       -6.0651273079  MEMB      253             0.0000000000
     28926       253  POPC      H13S           34.7931924091       25.1985264367       -7.5020021375  MEMB      253             0.0000000000
     28927       253  POPC      C214           35.5488754472       25.9117151601       -5.4721038512  MEMB      253             0.0000000000
     28928       253  POPC      H14R           36.3447463228       26.6095052636       -5.8097416264  MEMB      253             0.0000000000
     28929       253  POPC      H14S           36.0020466911       25.5547167299       -4.5226252252  MEMB      253             0.0000000000
     28930       253  POPC      C215           34.2625034911       26.5917225820       -4.9719924269  MEMB      253             0.0000000000
     28931       253  POPC      H15R           33.7993097327       27.0541520846       -5.8697289703  MEMB      253             0.0000000000
     28932       253  POPC      H15S           34.6347767957       27.4468750891       -4.3682977808  MEMB      253             0.0000000000
     28933       253  POPC      C216           33.4287929551       25.6464019424       -4.1901789629  MEMB      253             0.0000000000
     28934       253  POPC      H16R           34.1015632350       25.0191595710       -3.5670669686  MEMB      253             0.0000000000
     28935       253  POPC      H16S           32.8862283702       24.8680610599       -4.7682190808  MEMB      253             0.0000000000
     28936       253  POPC      C217           32.4106472205       26.2814369316       -3.2085547876  MEMB      253             0.0000000000
     28937       253  POPC      H17R           31.4180687099       26.4072902247       -3.6915352924  MEMB      253             0.0000000000
     28938       253  POPC      H17S           32.8966397026       27.2081332091       -2.8352364525  MEMB      253             0.0000000000
     28939       253  POPC      C218           32.1031868472       25.3845084451       -1.9699225025  MEMB      253             0.0000000000
     28940       253  POPC      H18R           33.0228190852       25.3108612972       -1.3509124118  MEMB      253             0.0000000000
     28941       253  POPC      H18S           31.8393169607       24.3606527945       -2.3111166931  MEMB      253             0.0000000000
     28942       253  POPC      H18T           31.3721383784       25.9005991047       -1.3114849563  MEMB      253             0.0000000000
     28943       253  POPC      C33            31.6736795727       24.8783839995       -9.2567720920  MEMB      253             0.0000000000
     28944       253  POPC      H3X            30.7255785446       25.2208346390       -8.7897032463  MEMB      253             0.0000000000
     28945       253  POPC      H3Y            32.4767542225       25.6250895284       -9.0783811985  MEMB      253             0.0000000000
     28946       253  POPC      C34            31.8043524735       23.4322738892       -8.7769334446  MEMB      253             0.0000000000
     28947       253  POPC      H4X            31.8261852567       23.5507053881       -7.6724800575  MEMB      253             0.0000000000
     28948       253  POPC      H4Y            32.8060239694       23.0707693942       -9.0936192704  MEMB      253             0.0000000000
     28949       253  POPC      C35            30.8155018473       22.3313810457       -9.2171929257  MEMB      253             0.0000000000
     28950       253  POPC      H5X            31.3046891993       21.8374965998      -10.0838499077  MEMB      253             0.0000000000
     28951       253  POPC      H5Y            29.8368671415       22.7714038859       -9.5052460592  MEMB      253             0.0000000000
     28952       253  POPC      C36            30.5629853034       21.2655808198       -8.1579646498  MEMB      253             0.0000000000
     28953       253  POPC      H6X            29.7462742025       20.5822431280       -8.4747515402  MEMB      253             0.0000000000
     28954       253  POPC      H6Y            30.2297687228       21.8073844680       -7.2470653246  MEMB      253             0.0000000000
     28955       253  POPC      C37            31.7414612296       20.3030904905       -7.8852736224  MEMB      253             0.0000000000
     28956       253  POPC      H7X            31.9565843470       19.7394966166       -8.8182288718  MEMB      253             0.0000000000
     28957       253  POPC      H7Y            31.3068981066       19.5730009943       -7.1694206629  MEMB      253             0.0000000000
     28958       253  POPC      C38            32.9845347739       20.9159252441       -7.1689438875  MEMB      253             0.0000000000
     28959       253  POPC      H8X            33.4591143270       21.5900338228       -7.9137073640  MEMB      253             0.0000000000
     28960       253  POPC      H8Y            33.7478027347       20.1274153022       -6.9957537101  MEMB      253             0.0000000000
     28961       253  POPC      C39            32.7223234421       21.5407662918       -5.7891296413  MEMB      253             0.0000000000
     28962       253  POPC      H9X            31.9365615576       22.3216052734       -5.8739214097  MEMB      253             0.0000000000
     28963       253  POPC      H9Y            33.6900015749       22.0333420484       -5.5539930980  MEMB      253             0.0000000000
     28964       253  POPC      C310           32.3842203914       20.4814084521       -4.7287233251  MEMB      253             0.0000000000
     28965       253  POPC      H10X           33.2112943164       19.7481392057       -4.6165361860  MEMB      253             0.0000000000
     28966       253  POPC      H10Y           31.4802134371       19.9569401365       -5.1055850184  MEMB      253             0.0000000000
     28967       253  POPC      C311           32.1141921857       21.0775241916       -3.3269232432  MEMB      253             0.0000000000
     28968       253  POPC      H11X           31.6255679594       20.2650307248       -2.7477672566  MEMB      253             0.0000000000
     28969       253  POPC      H11Y           31.4534054285       21.9633504998       -3.4409125825  MEMB      253             0.0000000000
     28970       253  POPC      C312           33.3974745491       21.6277612040       -2.5685110688  MEMB      253             0.0000000000
     28971       253  POPC      H12X           33.7826195797       22.5568492153       -3.0405075342  MEMB      253             0.0000000000
     28972       253  POPC      H12Y           34.2606462512       20.9297705530       -2.5230741762  MEMB      253             0.0000000000
     28973       253  POPC      C313           33.0350132473       22.0759622039       -1.1564970192  MEMB      253             0.0000000000
     28974       253  POPC      H13X           32.7639885558       21.1747756747       -0.5659636802  MEMB      253             0.0000000000
     28975       253  POPC      H13Y           32.0783106579       22.6297503015       -1.2676707604  MEMB      253             0.0000000000
     28976       253  POPC      C314           34.0981319834       22.8988317887       -0.2679154085  MEMB      253             0.0000000000
     28977       253  POPC      H14X           34.5583245196       23.6766934477       -0.9140390194  MEMB      253             0.0000000000
     28978       253  POPC      H14Y           34.8396011655       22.0832742597       -0.1285944781  MEMB      253             0.0000000000
     28979       253  POPC      C315           33.4954831817       23.3143937095        1.0903061418  MEMB      253             0.0000000000
     28980       253  POPC      H15X           32.8763559615       22.4610107648        1.4406486068  MEMB      253             0.0000000000
     28981       253  POPC      H15Y           32.7458331580       24.1149418392        0.9129121753  MEMB      253             0.0000000000
     28982       253  POPC      C316           34.4819200463       23.5387202422        2.1816344084  MEMB      253             0.0000000000
     28983       253  POPC      H16X           35.1656250836       24.3920671727        1.9849941253  MEMB      253             0.0000000000
     28984       253  POPC      H16Y           35.0286589948       22.5906634760        2.3729088860  MEMB      253             0.0000000000
     28985       253  POPC      H16Z           33.9240562380       23.7800199836        3.1116243322  MEMB      253             0.0000000000
     28986       254  POPC      N               8.0913363494       39.2510349455      -19.6752154755  MEMB      254             0.0000000000
     28987       254  POPC      C12             8.2673209982       40.4778252419      -20.4744796775  MEMB      254             0.0000000000
     28988       254  POPC      H12A            7.6351818938       41.1702390232      -19.9384170177  MEMB      254             0.0000000000
     28989       254  POPC      H12B            7.9469534995       40.3483449191      -21.4977096637  MEMB      254             0.0000000000
     28990       254  POPC      C13             9.3824162175       38.5548744790      -19.6337957199  MEMB      254             0.0000000000
     28991       254  POPC      H13A            9.3225152979       37.7431211578      -18.9239587711  MEMB      254             0.0000000000
     28992       254  POPC      H13B            9.6302462762       38.1841631910      -20.6174385733  MEMB      254             0.0000000000
     28993       254  POPC      H13C           10.1734266947       39.1720876396      -19.2341078162  MEMB      254             0.0000000000
     28994       254  POPC      C14             7.6902818211       39.4988824977      -18.2947964608  MEMB      254             0.0000000000
     28995       254  POPC      H14A            6.7723834569       40.0678379151      -18.3071374847  MEMB      254             0.0000000000
     28996       254  POPC      H14B            7.3880725413       38.6140460009      -17.7543024210  MEMB      254             0.0000000000
     28997       254  POPC      H14C            8.3876750709       40.0670855442      -17.6971442551  MEMB      254             0.0000000000
     28998       254  POPC      C15             7.0866046997       38.4058469163      -20.3116221033  MEMB      254             0.0000000000
     28999       254  POPC      H15A            7.3395787760       38.3526483059      -21.3602279810  MEMB      254             0.0000000000
     29000       254  POPC      H15B            6.1725042789       38.9754031292      -20.2314586539  MEMB      254             0.0000000000
     29001       254  POPC      H15C            7.0428478462       37.4677964788      -19.7781931934  MEMB      254             0.0000000000
     29002       254  POPC      C11             9.5902781722       41.2683350394      -20.4520235645  MEMB      254             0.0000000000
     29003       254  POPC      H11A            9.3779086770       42.2595271661      -20.9067305261  MEMB      254             0.0000000000
     29004       254  POPC      H11B           10.3103734938       40.7059605113      -21.0840984457  MEMB      254             0.0000000000
     29005       254  POPC      P               9.6897728474       42.5022188580      -18.0708944700  MEMB      254             0.0000000000
     29006       254  POPC      O13             8.2291467306       42.7454979532      -18.1648870015  MEMB      254             0.0000000000
     29007       254  POPC      O14            10.5952647229       43.6511735704      -18.2474996842  MEMB      254             0.0000000000
     29008       254  POPC      O12            10.0716104607       41.3436297005      -19.0519158438  MEMB      254             0.0000000000
     29009       254  POPC      O11             9.9762092710       41.9044846557      -16.6228699994  MEMB      254             0.0000000000
     29010       254  POPC      C1             11.2107568877       41.1365423962      -16.4723842464  MEMB      254             0.0000000000
     29011       254  POPC      HA             12.0896168056       41.7874168697      -16.6680593905  MEMB      254             0.0000000000
     29012       254  POPC      HB             11.1978668189       40.2948728955      -17.1974684269  MEMB      254             0.0000000000
     29013       254  POPC      C2             11.3337958882       40.4388932803      -15.0577085314  MEMB      254             0.0000000000
     29014       254  POPC      HS             11.7469565067       39.4141819784      -15.1742684340  MEMB      254             0.0000000000
     29015       254  POPC      O21            10.0733735166       40.3991507228      -14.3445331088  MEMB      254             0.0000000000
     29016       254  POPC      C21             9.2402678915       39.4125139488      -14.4594365936  MEMB      254             0.0000000000
     29017       254  POPC      O22             9.5092642721       38.3373715557      -14.9395876705  MEMB      254             0.0000000000
     29018       254  POPC      C22             7.9669558255       39.7437922207      -13.6825304780  MEMB      254             0.0000000000
     29019       254  POPC      H2R             7.2092045251       38.9617231556      -13.9027618470  MEMB      254             0.0000000000
     29020       254  POPC      H2S             7.4297073675       40.6217976737      -14.1006113051  MEMB      254             0.0000000000
     29021       254  POPC      C3             12.2477252630       41.2888053996      -14.1196899577  MEMB      254             0.0000000000
     29022       254  POPC      HX             13.1797278868       41.4702499223      -14.6965526090  MEMB      254             0.0000000000
     29023       254  POPC      HY             12.4788199680       40.6807526348      -13.2190304427  MEMB      254             0.0000000000
     29024       254  POPC      O31            11.6109680554       42.5743179125      -13.8579144064  MEMB      254             0.0000000000
     29025       254  POPC      C31            12.2707316493       43.2801301671      -12.9681787172  MEMB      254             0.0000000000
     29026       254  POPC      O32            13.2980250563       42.9118241899      -12.3571671997  MEMB      254             0.0000000000
     29027       254  POPC      C32            11.6532459869       44.6816866204      -12.8205618722  MEMB      254             0.0000000000
     29028       254  POPC      H2X            11.8146705545       45.2142518983      -13.7821425918  MEMB      254             0.0000000000
     29029       254  POPC      H2Y            12.2281570653       45.2217208780      -12.0381548120  MEMB      254             0.0000000000
     29030       254  POPC      C23             8.4059635111       39.8015190912      -12.1560051594  MEMB      254             0.0000000000
     29031       254  POPC      H3R             9.3020198649       40.4499476578      -12.0513896438  MEMB      254             0.0000000000
     29032       254  POPC      H3S             8.7746853237       38.7884456357      -11.8875890519  MEMB      254             0.0000000000
     29033       254  POPC      C24             7.2388251943       40.4336726302      -11.3156343731  MEMB      254             0.0000000000
     29034       254  POPC      H4R             6.6575703737       39.5626211105      -10.9445103505  MEMB      254             0.0000000000
     29035       254  POPC      H4S             6.5346357996       41.0742441476      -11.8884400095  MEMB      254             0.0000000000
     29036       254  POPC      C25             7.9649525759       41.0580235647      -10.0274320409  MEMB      254             0.0000000000
     29037       254  POPC      H5R             8.2637062742       42.1111821002      -10.2169696149  MEMB      254             0.0000000000
     29038       254  POPC      H5S             8.8963507676       40.4923627766       -9.8109922177  MEMB      254             0.0000000000
     29039       254  POPC      C26             7.0162709904       41.1057610372       -8.8081887211  MEMB      254             0.0000000000
     29040       254  POPC      H6R             7.5972604857       41.6061113830       -8.0041850584  MEMB      254             0.0000000000
     29041       254  POPC      H6S             6.7172782957       40.0880793591       -8.4776620468  MEMB      254             0.0000000000
     29042       254  POPC      C27             5.8014659195       41.9935362736       -9.0052286192  MEMB      254             0.0000000000
     29043       254  POPC      H7R             5.0112964853       41.5013397960       -9.6116081048  MEMB      254             0.0000000000
     29044       254  POPC      H7S             6.0259366370       42.9527193647       -9.5189422523  MEMB      254             0.0000000000
     29045       254  POPC      C28             5.2130997529       42.3362871385       -7.5732254580  MEMB      254             0.0000000000
     29046       254  POPC      H8R             4.3903506837       43.0248443870       -7.8618319949  MEMB      254             0.0000000000
     29047       254  POPC      H8S             5.9258212957       42.9263459177       -6.9582628672  MEMB      254             0.0000000000
     29048       254  POPC      C29             4.5619852483       41.1710801934       -6.8078253158  MEMB      254             0.0000000000
     29049       254  POPC      H91             3.4983216378       41.1041102535       -7.0801018498  MEMB      254             0.0000000000
     29050       254  POPC      C210            4.9705783260       40.3263231356       -5.8687103797  MEMB      254             0.0000000000
     29051       254  POPC      H101            4.2876401865       39.6025217528       -5.3999806817  MEMB      254             0.0000000000
     29052       254  POPC      C211            6.3293113404       40.2413076119       -5.2496963680  MEMB      254             0.0000000000
     29053       254  POPC      H11R            7.1186344109       40.0766854518       -6.0140188206  MEMB      254             0.0000000000
     29054       254  POPC      H11S            6.4134816748       39.2799790281       -4.6991655966  MEMB      254             0.0000000000
     29055       254  POPC      C212            6.6861454120       41.2249972704       -4.1008383570  MEMB      254             0.0000000000
     29056       254  POPC      H12R            6.6592722611       42.2561763032       -4.5134742380  MEMB      254             0.0000000000
     29057       254  POPC      H12S            7.7270771781       40.9701019944       -3.8079034995  MEMB      254             0.0000000000
     29058       254  POPC      C213            5.8727131315       41.1538421228       -2.7978657619  MEMB      254             0.0000000000
     29059       254  POPC      H13R            6.2665095653       40.2396365210       -2.3044353047  MEMB      254             0.0000000000
     29060       254  POPC      H13S            4.7766659217       41.0866038867       -2.9666276064  MEMB      254             0.0000000000
     29061       254  POPC      C214            6.3519052956       42.3124040013       -1.8903991771  MEMB      254             0.0000000000
     29062       254  POPC      H14R            6.1106905006       43.2466912251       -2.4410737734  MEMB      254             0.0000000000
     29063       254  POPC      H14S            7.4549970305       42.2900828126       -1.7599695571  MEMB      254             0.0000000000
     29064       254  POPC      C215            5.6858661093       42.3581876989       -0.6024732718  MEMB      254             0.0000000000
     29065       254  POPC      H15R            5.8842882088       41.4281491301       -0.0280378397  MEMB      254             0.0000000000
     29066       254  POPC      H15S            4.6151770025       42.4342836632       -0.8891009845  MEMB      254             0.0000000000
     29067       254  POPC      C216            5.9658676788       43.5629224622        0.2628034906  MEMB      254             0.0000000000
     29068       254  POPC      H16R            5.5713793229       44.4704490807       -0.2422652565  MEMB      254             0.0000000000
     29069       254  POPC      H16S            7.0739669734       43.5370945950        0.3387632743  MEMB      254             0.0000000000
     29070       254  POPC      C217            5.4530406099       43.6512256122        1.7071671889  MEMB      254             0.0000000000
     29071       254  POPC      H17R            5.5428841969       44.6736722739        2.1324345014  MEMB      254             0.0000000000
     29072       254  POPC      H17S            6.0891684751       43.0357922471        2.3786620418  MEMB      254             0.0000000000
     29073       254  POPC      C218            4.0349656509       43.2248161844        1.9626167426  MEMB      254             0.0000000000
     29074       254  POPC      H18R            3.9337393689       43.3237322753        3.0645654416  MEMB      254             0.0000000000
     29075       254  POPC      H18S            3.9204832466       42.1464794890        1.7209460873  MEMB      254             0.0000000000
     29076       254  POPC      H18T            3.3674349621       43.8990108458        1.3845297035  MEMB      254             0.0000000000
     29077       254  POPC      C33            10.1680148160       44.7279763929      -12.7248516224  MEMB      254             0.0000000000
     29078       254  POPC      H3X             9.7735286145       44.1283039859      -13.5728459647  MEMB      254             0.0000000000
     29079       254  POPC      H3Y             9.8629938400       45.7684036528      -12.9673263546  MEMB      254             0.0000000000
     29080       254  POPC      C34             9.5627512140       44.3210501997      -11.3408178775  MEMB      254             0.0000000000
     29081       254  POPC      H4X            10.1276519168       43.3913877403      -11.1151277203  MEMB      254             0.0000000000
     29082       254  POPC      H4Y             8.4896424137       44.0635590343      -11.4691013613  MEMB      254             0.0000000000
     29083       254  POPC      C35             9.7186799655       45.3133534352      -10.2407824117  MEMB      254             0.0000000000
     29084       254  POPC      H5X             9.0266829549       46.1821990057      -10.2169356583  MEMB      254             0.0000000000
     29085       254  POPC      H5Y            10.7459011488       45.7316156062      -10.3055454142  MEMB      254             0.0000000000
     29086       254  POPC      C36             9.7566085292       44.5928730935       -8.8618528812  MEMB      254             0.0000000000
     29087       254  POPC      H6X             8.8608078057       43.9385283719       -8.8010646980  MEMB      254             0.0000000000
     29088       254  POPC      H6Y             9.5887543541       45.4225996380       -8.1423392757  MEMB      254             0.0000000000
     29089       254  POPC      C37            10.9889173919       43.7409401113       -8.5270674488  MEMB      254             0.0000000000
     29090       254  POPC      H7X            11.7917728478       44.4583746248       -8.2531476343  MEMB      254             0.0000000000
     29091       254  POPC      H7Y            11.4774372516       43.3316375863       -9.4370892363  MEMB      254             0.0000000000
     29092       254  POPC      C38            10.7377823076       42.6822088425       -7.3798340074  MEMB      254             0.0000000000
     29093       254  POPC      H8X            10.0491795199       41.8824466138       -7.7270045431  MEMB      254             0.0000000000
     29094       254  POPC      H8Y            10.1239899657       43.1250680892       -6.5665349948  MEMB      254             0.0000000000
     29095       254  POPC      C39            12.0567778088       42.2284622372       -6.7963300352  MEMB      254             0.0000000000
     29096       254  POPC      H9X            12.6717623089       43.0463181505       -6.3636320993  MEMB      254             0.0000000000
     29097       254  POPC      H9Y            12.6973835239       41.5902047032       -7.4417537502  MEMB      254             0.0000000000
     29098       254  POPC      C310           11.7744755161       41.3500190215       -5.6418708668  MEMB      254             0.0000000000
     29099       254  POPC      H10X           11.0991777449       41.8557628305       -4.9190175123  MEMB      254             0.0000000000
     29100       254  POPC      H10Y           12.6909917152       41.2198721174       -5.0275574604  MEMB      254             0.0000000000
     29101       254  POPC      C311           11.1645988748       39.9173888958       -5.9420419528  MEMB      254             0.0000000000
     29102       254  POPC      H11X           11.9513979797       39.2848197441       -6.4058576400  MEMB      254             0.0000000000
     29103       254  POPC      H11Y           10.3906764845       40.1209299251       -6.7127147377  MEMB      254             0.0000000000
     29104       254  POPC      C312           10.4580663040       39.1795795614       -4.8029493699  MEMB      254             0.0000000000
     29105       254  POPC      H12X           10.1262582401       38.2016818156       -5.2127551075  MEMB      254             0.0000000000
     29106       254  POPC      H12Y            9.5005333499       39.6776514244       -4.5395561808  MEMB      254             0.0000000000
     29107       254  POPC      C313           11.2844853114       38.9926803731       -3.5176803106  MEMB      254             0.0000000000
     29108       254  POPC      H13X           11.4707044809       40.0114932257       -3.1156060784  MEMB      254             0.0000000000
     29109       254  POPC      H13Y           12.2795784896       38.5653657199       -3.7656981641  MEMB      254             0.0000000000
     29110       254  POPC      C314           10.7085464900       38.0882417000       -2.3896423115  MEMB      254             0.0000000000
     29111       254  POPC      H14X           11.5649389741       38.0036909753       -1.6869596143  MEMB      254             0.0000000000
     29112       254  POPC      H14Y           10.4970758059       37.1289817500       -2.9087013607  MEMB      254             0.0000000000
     29113       254  POPC      C315            9.5173601370       38.6460974050       -1.6724463996  MEMB      254             0.0000000000
     29114       254  POPC      H15X            9.3300592338       38.0213593023       -0.7730354795  MEMB      254             0.0000000000
     29115       254  POPC      H15Y            8.6097416624       38.6514808519       -2.3131661947  MEMB      254             0.0000000000
     29116       254  POPC      C316            9.6949260146       40.0604682295       -1.2108989027  MEMB      254             0.0000000000
     29117       254  POPC      H16X           10.6765909271       40.2414167671       -0.7231359119  MEMB      254             0.0000000000
     29118       254  POPC      H16Y            8.8789793243       40.3478029096       -0.5137672805  MEMB      254             0.0000000000
     29119       254  POPC      H16Z            9.9602031885       40.7370278508       -2.0512643845  MEMB      254             0.0000000000
     29120       255  POPE      N              37.6398466179        6.1770792773      -17.2775257852  MEMB      255             0.0000000000
     29121       255  POPE      HN1            36.6458891569        6.0576797878      -17.5592916311  MEMB      255             0.0000000000
     29122       255  POPE      HN2            37.8809582644        5.7403640896      -16.3649770179  MEMB      255             0.0000000000
     29123       255  POPE      HN3            37.6824412091        7.2068189754      -17.1381638041  MEMB      255             0.0000000000
     29124       255  POPE      C12            38.7340619844        5.9441847161      -18.3126159143  MEMB      255             0.0000000000
     29125       255  POPE      H12A           38.7457458402        4.8561210782      -18.5368975660  MEMB      255             0.0000000000
     29126       255  POPE      H12B           39.6923405927        6.1663550345      -17.7962211386  MEMB      255             0.0000000000
     29127       255  POPE      C11            38.6655842821        6.8200431609      -19.5470391580  MEMB      255             0.0000000000
     29128       255  POPE      H11A           37.6190268616        6.7605799208      -19.9151461025  MEMB      255             0.0000000000
     29129       255  POPE      H11B           39.4380686140        6.3792082675      -20.2128120012  MEMB      255             0.0000000000
     29130       255  POPE      P              40.2676854263        8.9501961076      -19.4515851168  MEMB      255             0.0000000000
     29131       255  POPE      O13            39.9922213140       10.3572652628      -19.2805202029  MEMB      255             0.0000000000
     29132       255  POPE      O14            40.9554267182        8.5842531085      -20.7220315024  MEMB      255             0.0000000000
     29133       255  POPE      O11            41.1524171386        8.4721790347      -18.1845821921  MEMB      255             0.0000000000
     29134       255  POPE      O12            38.9403645176        8.1071162156      -19.2241001273  MEMB      255             0.0000000000
     29135       255  POPE      C1             42.3673539063        7.7844612782      -18.3422547621  MEMB      255             0.0000000000
     29136       255  POPE      HA             42.9765244750        8.1642117856      -19.1902063466  MEMB      255             0.0000000000
     29137       255  POPE      HB             42.1859862720        6.7226540405      -18.6142699233  MEMB      255             0.0000000000
     29138       255  POPE      C2             43.0802058800        7.8328888659      -16.9618117674  MEMB      255             0.0000000000
     29139       255  POPE      HS             43.9271809528        7.1139348251      -16.9541030062  MEMB      255             0.0000000000
     29140       255  POPE      O21            42.2469524925        7.3832896623      -15.8993987943  MEMB      255             0.0000000000
     29141       255  POPE      C21            41.6501819497        6.2666276270      -16.0170216375  MEMB      255             0.0000000000
     29142       255  POPE      O22            41.9222773403        5.3315103785      -16.7337371608  MEMB      255             0.0000000000
     29143       255  POPE      C22            40.6936058791        6.1155128395      -14.8675949446  MEMB      255             0.0000000000
     29144       255  POPE      H2R            39.6637495525        5.9544677928      -15.2520183153  MEMB      255             0.0000000000
     29145       255  POPE      H2S            40.6141427210        7.0089593253      -14.2120341874  MEMB      255             0.0000000000
     29146       255  POPE      C3             43.6739696958        9.2324432262      -16.5988025096  MEMB      255             0.0000000000
     29147       255  POPE      HX             44.4477157993        9.5631881603      -17.3242301478  MEMB      255             0.0000000000
     29148       255  POPE      HY             44.2180094342        8.9356170133      -15.6767201736  MEMB      255             0.0000000000
     29149       255  POPE      O31            42.6914617881       10.2990541973      -16.4715362003  MEMB      255             0.0000000000
     29150       255  POPE      C31            42.5959100956       10.7540439465      -15.2308897042  MEMB      255             0.0000000000
     29151       255  POPE      O32            43.3160278565       10.4830995489      -14.2895442946  MEMB      255             0.0000000000
     29152       255  POPE      C32            41.2900720119       11.6273079915      -15.1165619623  MEMB      255             0.0000000000
     29153       255  POPE      H2X            41.2207464878       12.3554917062      -15.9527818271  MEMB      255             0.0000000000
     29154       255  POPE      H2Y            41.3848738459       12.1539238317      -14.1429042849  MEMB      255             0.0000000000
     29155       255  POPE      C23            41.1895544873        4.9175971857      -14.0536550475  MEMB      255             0.0000000000
     29156       255  POPE      H3R            41.3506061946        3.9968674339      -14.6541881367  MEMB      255             0.0000000000
     29157       255  POPE      H3S            40.3508137764        4.6706773107      -13.3681875293  MEMB      255             0.0000000000
     29158       255  POPE      C24            42.3968860949        5.1980256097      -13.1405066767  MEMB      255             0.0000000000
     29159       255  POPE      H4R            43.2471198445        5.3636782439      -13.8361956958  MEMB      255             0.0000000000
     29160       255  POPE      H4S            42.5277108369        4.3244624576      -12.4666427959  MEMB      255             0.0000000000
     29161       255  POPE      C25            42.2620394657        6.2848594668      -12.0270260318  MEMB      255             0.0000000000
     29162       255  POPE      H5R            41.2937059860        6.0473048800      -11.5369044930  MEMB      255             0.0000000000
     29163       255  POPE      H5S            42.1821780992        7.1872881054      -12.6701167380  MEMB      255             0.0000000000
     29164       255  POPE      C26            43.4949722358        6.3621984412      -11.1068806880  MEMB      255             0.0000000000
     29165       255  POPE      H6R            44.4127968615        6.4345880673      -11.7287153221  MEMB      255             0.0000000000
     29166       255  POPE      H6S            43.6816570017        5.4314302925      -10.5296973300  MEMB      255             0.0000000000
     29167       255  POPE      C27            43.3913207361        7.5496039336      -10.1249572369  MEMB      255             0.0000000000
     29168       255  POPE      H7R            43.1192569985        8.4593123856      -10.7017870526  MEMB      255             0.0000000000
     29169       255  POPE      H7S            44.4370250200        7.5885758721       -9.7517213540  MEMB      255             0.0000000000
     29170       255  POPE      C28            42.5555665850        7.2247322204       -8.8913819670  MEMB      255             0.0000000000
     29171       255  POPE      H8R            42.6748185208        8.1314236105       -8.2605011920  MEMB      255             0.0000000000
     29172       255  POPE      H8S            42.9041271823        6.2671498830       -8.4488182340  MEMB      255             0.0000000000
     29173       255  POPE      C29            41.0904964839        7.2042495007       -9.1716012616  MEMB      255             0.0000000000
     29174       255  POPE      H91            40.8102526892        7.6680862975      -10.1288475729  MEMB      255             0.0000000000
     29175       255  POPE      C210           40.0935220790        7.0188717536       -8.3867866164  MEMB      255             0.0000000000
     29176       255  POPE      H101           39.0461851398        7.2215203656       -8.6551490188  MEMB      255             0.0000000000
     29177       255  POPE      C211           40.3118509127        6.8214357027       -6.8720601308  MEMB      255             0.0000000000
     29178       255  POPE      H11R           39.6583730443        7.4587659022       -6.2387373263  MEMB      255             0.0000000000
     29179       255  POPE      H11S           41.3412134638        7.0458526350       -6.5193985843  MEMB      255             0.0000000000
     29180       255  POPE      C212           40.1622182236        5.3238652193       -6.4767934662  MEMB      255             0.0000000000
     29181       255  POPE      H12R           40.8438870587        4.8083405286       -7.1866406516  MEMB      255             0.0000000000
     29182       255  POPE      H12S           39.1817228932        4.8121454165       -6.5821146873  MEMB      255             0.0000000000
     29183       255  POPE      C213           40.7426120533        4.9534785108       -5.1103718418  MEMB      255             0.0000000000
     29184       255  POPE      H13R           41.7608524017        5.3949977159       -5.1610507863  MEMB      255             0.0000000000
     29185       255  POPE      H13S           40.5839485966        3.8780883816       -4.8808434104  MEMB      255             0.0000000000
     29186       255  POPE      C214           39.9609883967        5.5649937567       -3.9311599705  MEMB      255             0.0000000000
     29187       255  POPE      H14R           39.1665021557        4.8618800595       -3.6013961906  MEMB      255             0.0000000000
     29188       255  POPE      H14S           39.4628026851        6.5296588548       -4.1668564174  MEMB      255             0.0000000000
     29189       255  POPE      C215           40.9886804464        5.8707057527       -2.8174660238  MEMB      255             0.0000000000
     29190       255  POPE      H15R           41.5108338053        6.8170166690       -3.0747057555  MEMB      255             0.0000000000
     29191       255  POPE      H15S           41.8763879053        5.2027118872       -2.8264549317  MEMB      255             0.0000000000
     29192       255  POPE      C216           40.4765437159        6.2330789760       -1.4021368322  MEMB      255             0.0000000000
     29193       255  POPE      H16R           39.9687558993        5.3353092475       -0.9892419445  MEMB      255             0.0000000000
     29194       255  POPE      H16S           39.6858069039        7.0133679274       -1.3877973669  MEMB      255             0.0000000000
     29195       255  POPE      C217           41.6535336218        6.4982737522       -0.4724100989  MEMB      255             0.0000000000
     29196       255  POPE      H17R           42.1532443271        5.6001124300       -0.0506076461  MEMB      255             0.0000000000
     29197       255  POPE      H17S           41.1805074132        6.9868645265        0.4061377162  MEMB      255             0.0000000000
     29198       255  POPE      C218           42.7535453215        7.4428881736       -0.9100251663  MEMB      255             0.0000000000
     29199       255  POPE      H18R           42.2339975287        8.3776879844       -1.2109242117  MEMB      255             0.0000000000
     29200       255  POPE      H18S           43.3066200307        7.1078965727       -1.8134692471  MEMB      255             0.0000000000
     29201       255  POPE      H18T           43.3972684200        7.5634591940       -0.0125825133  MEMB      255             0.0000000000
     29202       255  POPE      C33            40.0068700797       10.7345911410      -15.1817754159  MEMB      255             0.0000000000
     29203       255  POPE      H3X            40.2315679831        9.9350136179      -15.9196828928  MEMB      255             0.0000000000
     29204       255  POPE      H3Y            39.2068752549       11.4538465500      -15.4592660526  MEMB      255             0.0000000000
     29205       255  POPE      C34            39.6501203104        9.9664656146      -13.9355420986  MEMB      255             0.0000000000
     29206       255  POPE      H4X            39.7211883406       10.7441677032      -13.1453206478  MEMB      255             0.0000000000
     29207       255  POPE      H4Y            40.5073207801        9.2766440671      -13.7816767184  MEMB      255             0.0000000000
     29208       255  POPE      C35            38.2904492567        9.3568589830      -13.9213694504  MEMB      255             0.0000000000
     29209       255  POPE      H5X            38.4358801167        8.4969585380      -14.6096588097  MEMB      255             0.0000000000
     29210       255  POPE      H5Y            37.4954874944        9.9924334077      -14.3667926380  MEMB      255             0.0000000000
     29211       255  POPE      C36            37.8475805309        8.8928164986      -12.4811917943  MEMB      255             0.0000000000
     29212       255  POPE      H6X            37.8963044295        9.7511863016      -11.7775241376  MEMB      255             0.0000000000
     29213       255  POPE      H6Y            38.5761162429        8.1235352540      -12.1468818232  MEMB      255             0.0000000000
     29214       255  POPE      C37            36.4548436869        8.2213502341      -12.4412161030  MEMB      255             0.0000000000
     29215       255  POPE      H7X            36.3040032272        7.4173771580      -13.1930104990  MEMB      255             0.0000000000
     29216       255  POPE      H7Y            35.5615178804        8.8462680264      -12.6551501948  MEMB      255             0.0000000000
     29217       255  POPE      C38            35.9863648868        7.5148317822      -11.1249436267  MEMB      255             0.0000000000
     29218       255  POPE      H8X            36.6378339293        6.6149206780      -11.1166287813  MEMB      255             0.0000000000
     29219       255  POPE      H8Y            34.9043897615        7.2634036921      -11.1041007762  MEMB      255             0.0000000000
     29220       255  POPE      C39            36.1064517791        8.2451168787       -9.8018513457  MEMB      255             0.0000000000
     29221       255  POPE      H9X            35.6213443776        9.2407974887       -9.8890970282  MEMB      255             0.0000000000
     29222       255  POPE      H9Y            37.1788322211        8.4116163744       -9.5639457626  MEMB      255             0.0000000000
     29223       255  POPE      C310           35.3950695221        7.4663688950       -8.6255436709  MEMB      255             0.0000000000
     29224       255  POPE      H10X           36.0228182092        6.5652287658       -8.4576179660  MEMB      255             0.0000000000
     29225       255  POPE      H10Y           34.3893035006        7.2464205883       -9.0431301523  MEMB      255             0.0000000000
     29226       255  POPE      C311           35.3652940846        8.1373299894       -7.2153825213  MEMB      255             0.0000000000
     29227       255  POPE      H11X           35.0044778710        7.4203907894       -6.4471824459  MEMB      255             0.0000000000
     29228       255  POPE      H11Y           34.7459406976        9.0534136298       -7.3226825403  MEMB      255             0.0000000000
     29229       255  POPE      C312           36.7667634251        8.5990256165       -6.8764040928  MEMB      255             0.0000000000
     29230       255  POPE      H12X           37.1097169646        9.3016321740       -7.6657377973  MEMB      255             0.0000000000
     29231       255  POPE      H12Y           37.4856551628        7.7521395992       -6.8590947441  MEMB      255             0.0000000000
     29232       255  POPE      C313           36.9609868122        9.3403683182       -5.5311989235  MEMB      255             0.0000000000
     29233       255  POPE      H13X           36.2646521007       10.2032267897       -5.4610964625  MEMB      255             0.0000000000
     29234       255  POPE      H13Y           38.0178325740        9.6709820810       -5.4412382958  MEMB      255             0.0000000000
     29235       255  POPE      C314           36.6080857547        8.4142968018       -4.3168592912  MEMB      255             0.0000000000
     29236       255  POPE      H14X           37.2213595906        7.4977278321       -4.4514604957  MEMB      255             0.0000000000
     29237       255  POPE      H14Y           35.5614194364        8.0430810886       -4.2850857965  MEMB      255             0.0000000000
     29238       255  POPE      C315           36.9460259878        8.9944795122       -2.9034673120  MEMB      255             0.0000000000
     29239       255  POPE      H15X           36.1451356270        9.7321361452       -2.6826552996  MEMB      255             0.0000000000
     29240       255  POPE      H15Y           37.9118363012        9.5348697357       -3.0009857903  MEMB      255             0.0000000000
     29241       255  POPE      C316           36.8372979740        7.9706090585       -1.8242495387  MEMB      255             0.0000000000
     29242       255  POPE      H16X           35.7844525890        7.6812548152       -1.6190381621  MEMB      255             0.0000000000
     29243       255  POPE      H16Y           37.2359384798        8.4270548863       -0.8930878092  MEMB      255             0.0000000000
     29244       255  POPE      H16Z           37.5704354000        7.2019727445       -2.1498717798  MEMB      255             0.0000000000
     29245       256  POPC      N              26.4813524055       32.3849418879      -19.2969520644  MEMB      256             0.0000000000
     29246       256  POPC      C12            25.9392229626       33.4770301360      -20.2105198494  MEMB      256             0.0000000000
     29247       256  POPC      H12A           26.0517281362       33.2025331392      -21.2489772868  MEMB      256             0.0000000000
     29248       256  POPC      H12B           26.5617138655       34.3585340806      -20.1674419527  MEMB      256             0.0000000000
     29249       256  POPC      C13            25.4260212073       31.2458207070      -19.2615676086  MEMB      256             0.0000000000
     29250       256  POPC      H13A           24.5020537030       31.6476925700      -18.8727449537  MEMB      256             0.0000000000
     29251       256  POPC      H13B           25.1774981402       30.9346895515      -20.2654769011  MEMB      256             0.0000000000
     29252       256  POPC      H13C           25.6574019678       30.4087102369      -18.6196101963  MEMB      256             0.0000000000
     29253       256  POPC      C14            27.6902639724       31.6940204576      -19.7317866175  MEMB      256             0.0000000000
     29254       256  POPC      H14A           28.4867012700       32.3328315082      -19.3796381617  MEMB      256             0.0000000000
     29255       256  POPC      H14B           27.9296148158       30.7126375798      -19.3496888240  MEMB      256             0.0000000000
     29256       256  POPC      H14C           27.5965104058       31.5791029385      -20.8015549006  MEMB      256             0.0000000000
     29257       256  POPC      C15            26.6538387241       32.8093228308      -17.8756538825  MEMB      256             0.0000000000
     29258       256  POPC      H15A           27.5205729399       33.4532781771      -17.8978656112  MEMB      256             0.0000000000
     29259       256  POPC      H15B           26.7724606080       31.9590979854      -17.2203320902  MEMB      256             0.0000000000
     29260       256  POPC      H15C           25.8129560921       33.4317148578      -17.6074291188  MEMB      256             0.0000000000
     29261       256  POPC      C11            24.3727424925       33.8285251957      -20.1180820572  MEMB      256             0.0000000000
     29262       256  POPC      H11A           23.8936380870       32.9789029872      -20.6499862617  MEMB      256             0.0000000000
     29263       256  POPC      H11B           24.0942400816       34.6980749161      -20.7510438494  MEMB      256             0.0000000000
     29264       256  POPC      P              22.4932298254       34.5554495062      -18.5633176874  MEMB      256             0.0000000000
     29265       256  POPC      O13            21.6991975839       34.0265735860      -19.6532290272  MEMB      256             0.0000000000
     29266       256  POPC      O14            22.4879102056       35.9988068395      -18.3985510417  MEMB      256             0.0000000000
     29267       256  POPC      O12            23.9928014337       34.0516267022      -18.7367415171  MEMB      256             0.0000000000
     29268       256  POPC      O11            22.0824933723       33.9243054407      -17.1535986472  MEMB      256             0.0000000000
     29269       256  POPC      C1             22.6244317595       34.5928022309      -16.0538097110  MEMB      256             0.0000000000
     29270       256  POPC      HA             22.4822396885       35.6904329333      -16.1502930594  MEMB      256             0.0000000000
     29271       256  POPC      HB             23.7015384130       34.3859868103      -15.8766381758  MEMB      256             0.0000000000
     29272       256  POPC      C2             21.9405653111       34.3122636013      -14.6342018947  MEMB      256             0.0000000000
     29273       256  POPC      HS             22.3708974483       34.8799622000      -13.7816449557  MEMB      256             0.0000000000
     29274       256  POPC      O21            21.9331746580       32.9133616454      -14.3407557560  MEMB      256             0.0000000000
     29275       256  POPC      C21            23.0081297447       32.5525562674      -13.6067314618  MEMB      256             0.0000000000
     29276       256  POPC      O22            23.9823682696       33.2981989460      -13.4507406216  MEMB      256             0.0000000000
     29277       256  POPC      C22            22.8834202955       31.1276663545      -13.1200031747  MEMB      256             0.0000000000
     29278       256  POPC      H2R            23.8948189625       30.6740317658      -13.0451066665  MEMB      256             0.0000000000
     29279       256  POPC      H2S            22.3203310164       30.4706364825      -13.8168269125  MEMB      256             0.0000000000
     29280       256  POPC      C3             20.4389686767       34.7511968349      -14.6584328749  MEMB      256             0.0000000000
     29281       256  POPC      HX             19.9848339075       34.2359568671      -15.5317084889  MEMB      256             0.0000000000
     29282       256  POPC      HY             20.4791910708       35.8462557499      -14.8415970430  MEMB      256             0.0000000000
     29283       256  POPC      O31            19.6958051119       34.4468579090      -13.4626743062  MEMB      256             0.0000000000
     29284       256  POPC      C31            19.6698460279       35.3754414882      -12.4595682732  MEMB      256             0.0000000000
     29285       256  POPC      O32            20.1516920977       36.4787350626      -12.5803779028  MEMB      256             0.0000000000
     29286       256  POPC      C32            19.0107936603       34.8689345481      -11.2199870560  MEMB      256             0.0000000000
     29287       256  POPC      H2X            19.1506162036       33.7765231366      -11.0736738642  MEMB      256             0.0000000000
     29288       256  POPC      H2Y            17.9271111490       35.0018137300      -11.4256472090  MEMB      256             0.0000000000
     29289       256  POPC      C23            22.2183597384       30.9918576613      -11.7313412969  MEMB      256             0.0000000000
     29290       256  POPC      H3R            22.6403524751       31.7667307207      -11.0562007256  MEMB      256             0.0000000000
     29291       256  POPC      H3S            22.5085883621       29.9707449768      -11.4035949795  MEMB      256             0.0000000000
     29292       256  POPC      C24            20.6409104408       31.1399424054      -11.7530693853  MEMB      256             0.0000000000
     29293       256  POPC      H4R            20.2814549234       30.3802224397      -12.4796631155  MEMB      256             0.0000000000
     29294       256  POPC      H4S            20.3078577647       32.1749516667      -11.9814392467  MEMB      256             0.0000000000
     29295       256  POPC      C25            19.9472422762       30.7107717640      -10.4910516871  MEMB      256             0.0000000000
     29296       256  POPC      H5R            20.2743973834       31.5005069555       -9.7813974737  MEMB      256             0.0000000000
     29297       256  POPC      H5S            20.3118925880       29.7360216008      -10.1021892677  MEMB      256             0.0000000000
     29298       256  POPC      C26            18.4664431778       30.7903425205      -10.5192046383  MEMB      256             0.0000000000
     29299       256  POPC      H6R            18.1569622535       30.2171403105      -11.4191951498  MEMB      256             0.0000000000
     29300       256  POPC      H6S            18.1959999897       31.8003016335      -10.8949230316  MEMB      256             0.0000000000
     29301       256  POPC      C27            17.6478286838       30.5119385595       -9.1627675463  MEMB      256             0.0000000000
     29302       256  POPC      H7R            17.6561307784       29.4456579441       -8.8508411543  MEMB      256             0.0000000000
     29303       256  POPC      H7S            16.5697332030       30.7689410217       -9.2401002931  MEMB      256             0.0000000000
     29304       256  POPC      C28            18.2333281998       31.2241467818       -7.9504845669  MEMB      256             0.0000000000
     29305       256  POPC      H8R            19.3270994308       31.0667944245       -7.8354834445  MEMB      256             0.0000000000
     29306       256  POPC      H8S            17.7934724932       30.6732063441       -7.0918153685  MEMB      256             0.0000000000
     29307       256  POPC      C29            17.9571980808       32.7190823897       -7.8711673157  MEMB      256             0.0000000000
     29308       256  POPC      H91            17.5539436476       33.1313912374       -8.8078570269  MEMB      256             0.0000000000
     29309       256  POPC      C210           17.9928216034       33.5120235063       -6.7914462125  MEMB      256             0.0000000000
     29310       256  POPC      H101           17.8411437162       34.5764227496       -7.0239279405  MEMB      256             0.0000000000
     29311       256  POPC      C211           18.3396476466       33.0766054993       -5.3924837201  MEMB      256             0.0000000000
     29312       256  POPC      H11R           18.1817485591       31.9823583132       -5.2828844747  MEMB      256             0.0000000000
     29313       256  POPC      H11S           17.7061449375       33.6367656751       -4.6719175472  MEMB      256             0.0000000000
     29314       256  POPC      C212           19.7874712917       33.5082084485       -5.0208214576  MEMB      256             0.0000000000
     29315       256  POPC      H12R           19.8033179210       34.6165882065       -5.0954158546  MEMB      256             0.0000000000
     29316       256  POPC      H12S           20.5189568590       33.1076627123       -5.7548604314  MEMB      256             0.0000000000
     29317       256  POPC      C213           20.4029007053       33.0998880372       -3.6471352909  MEMB      256             0.0000000000
     29318       256  POPC      H13R           21.5130397360       33.0681486494       -3.6772148879  MEMB      256             0.0000000000
     29319       256  POPC      H13S           20.0783434481       32.0469669925       -3.5045131108  MEMB      256             0.0000000000
     29320       256  POPC      C214           19.8049645044       33.9352625729       -2.4189884328  MEMB      256             0.0000000000
     29321       256  POPC      H14R           18.7606476900       33.6039514800       -2.2347175002  MEMB      256             0.0000000000
     29322       256  POPC      H14S           19.8757570024       35.0172664132       -2.6610173839  MEMB      256             0.0000000000
     29323       256  POPC      C215           20.6411539513       33.8634773264       -1.1572016422  MEMB      256             0.0000000000
     29324       256  POPC      H15R           20.2875431327       34.3555924007       -0.2260184905  MEMB      256             0.0000000000
     29325       256  POPC      H15S           21.5983989997       34.4164905874       -1.2675628805  MEMB      256             0.0000000000
     29326       256  POPC      C216           20.9365678121       32.3619188712       -0.7137430660  MEMB      256             0.0000000000
     29327       256  POPC      H16R           21.1799146910       31.6944847161       -1.5679286009  MEMB      256             0.0000000000
     29328       256  POPC      H16S           20.0114448026       31.9576828468       -0.2499942933  MEMB      256             0.0000000000
     29329       256  POPC      C217           22.1045822810       32.2855920137        0.2739746862  MEMB      256             0.0000000000
     29330       256  POPC      H17R           21.8789936338       33.0709675842        1.0267129067  MEMB      256             0.0000000000
     29331       256  POPC      H17S           23.0081024766       32.6192876280       -0.2797586506  MEMB      256             0.0000000000
     29332       256  POPC      C218           22.4255704704       30.9336403900        0.9092540271  MEMB      256             0.0000000000
     29333       256  POPC      H18R           22.7479020327       30.2377284764        0.1054320846  MEMB      256             0.0000000000
     29334       256  POPC      H18S           21.5923754656       30.4684893954        1.4782354744  MEMB      256             0.0000000000
     29335       256  POPC      H18T           23.1860064107       31.1914927012        1.6770876526  MEMB      256             0.0000000000
     29336       256  POPC      C33            19.4505567025       35.8246320508      -10.1249383683  MEMB      256             0.0000000000
     29337       256  POPC      H3X            18.8455722429       35.8177720438       -9.1931298555  MEMB      256             0.0000000000
     29338       256  POPC      H3Y            19.2480517903       36.8205197688      -10.5738483167  MEMB      256             0.0000000000
     29339       256  POPC      C34            20.9694135862       35.5649924826       -9.7979783535  MEMB      256             0.0000000000
     29340       256  POPC      H4X            21.2578408475       36.3685440513       -9.0870390642  MEMB      256             0.0000000000
     29341       256  POPC      H4Y            21.6394918673       35.7036193883      -10.6732490023  MEMB      256             0.0000000000
     29342       256  POPC      C35            21.4113069336       34.1862049170       -9.2505019933  MEMB      256             0.0000000000
     29343       256  POPC      H5X            21.0819847953       33.3423428044       -9.8937477394  MEMB      256             0.0000000000
     29344       256  POPC      H5Y            20.8922078241       33.9867337797       -8.2886972367  MEMB      256             0.0000000000
     29345       256  POPC      C36            22.9578421777       34.1874189078       -8.9949872782  MEMB      256             0.0000000000
     29346       256  POPC      H6X            23.2101071235       35.1951416622       -8.6010603850  MEMB      256             0.0000000000
     29347       256  POPC      H6Y            23.3999297366       34.1085368763      -10.0111846991  MEMB      256             0.0000000000
     29348       256  POPC      C37            23.4168347907       33.0443454972       -8.0834697341  MEMB      256             0.0000000000
     29349       256  POPC      H7X            23.3260851993       32.0777235304       -8.6235877937  MEMB      256             0.0000000000
     29350       256  POPC      H7Y            22.7134939980       32.9084220223       -7.2342598548  MEMB      256             0.0000000000
     29351       256  POPC      C38            24.9010731084       33.2218639457       -7.6363058328  MEMB      256             0.0000000000
     29352       256  POPC      H8X            24.8479082149       33.7711515555       -6.6720560705  MEMB      256             0.0000000000
     29353       256  POPC      H8Y            25.4413256597       33.7988286837       -8.4170487588  MEMB      256             0.0000000000
     29354       256  POPC      C39            25.5629028300       31.8837436911       -7.4155663136  MEMB      256             0.0000000000
     29355       256  POPC      H9X            26.6297614412       31.9398908972       -7.1106391141  MEMB      256             0.0000000000
     29356       256  POPC      H9Y            25.6498326557       31.4190217544       -8.4209500906  MEMB      256             0.0000000000
     29357       256  POPC      C310           24.9675370107       30.9673851316       -6.3739566728  MEMB      256             0.0000000000
     29358       256  POPC      H10X           25.7181608076       30.1718870428       -6.1788470993  MEMB      256             0.0000000000
     29359       256  POPC      H10Y           24.0533903426       30.4819735727       -6.7777296319  MEMB      256             0.0000000000
     29360       256  POPC      C311           24.5262691338       31.6344089740       -5.0596773352  MEMB      256             0.0000000000
     29361       256  POPC      H11X           24.2019447184       30.7591684080       -4.4571088584  MEMB      256             0.0000000000
     29362       256  POPC      H11Y           23.6222593207       32.2476112764       -5.2623353597  MEMB      256             0.0000000000
     29363       256  POPC      C312           25.6145071137       32.4642782431       -4.2915130601  MEMB      256             0.0000000000
     29364       256  POPC      H12X           25.9487106879       33.3254580195       -4.9087630347  MEMB      256             0.0000000000
     29365       256  POPC      H12Y           26.5063939363       31.8251720103       -4.1171507394  MEMB      256             0.0000000000
     29366       256  POPC      C313           24.9868539587       33.2465278963       -3.1154548502  MEMB      256             0.0000000000
     29367       256  POPC      H13X           24.5081647855       32.6586113159       -2.3033400620  MEMB      256             0.0000000000
     29368       256  POPC      H13Y           24.2070087874       33.8297154882       -3.6502964579  MEMB      256             0.0000000000
     29369       256  POPC      C314           26.0331827221       34.2573400493       -2.4902956247  MEMB      256             0.0000000000
     29370       256  POPC      H14X           26.3954910607       35.0259834359       -3.2060057784  MEMB      256             0.0000000000
     29371       256  POPC      H14Y           26.8265040317       33.5986735030       -2.0766290870  MEMB      256             0.0000000000
     29372       256  POPC      C315           25.4357408121       35.1310511124       -1.2809690933  MEMB      256             0.0000000000
     29373       256  POPC      H15X           26.2199520498       35.7785551757       -0.8336745591  MEMB      256             0.0000000000
     29374       256  POPC      H15Y           25.1187439276       34.4509467166       -0.4616449290  MEMB      256             0.0000000000
     29375       256  POPC      C316           24.3684287980       36.0636044259       -1.8024539527  MEMB      256             0.0000000000
     29376       256  POPC      H16X           24.8367849780       36.8246540646       -2.4625800699  MEMB      256             0.0000000000
     29377       256  POPC      H16Y           23.8352853419       36.5992050538       -0.9880765304  MEMB      256             0.0000000000
     29378       256  POPC      H16Z           23.6591207719       35.4183090406       -2.3635212921  MEMB      256             0.0000000000
     29379       257  POPC      N              -5.7839354549      -35.8736889584      -17.9258138169  MEMB      257             0.0000000000
     29380       257  POPC      C12            -7.0072213849      -35.0735119031      -17.4833976191  MEMB      257             0.0000000000
     29381       257  POPC      H12A           -6.6621437325      -34.0512752762      -17.4348834590  MEMB      257             0.0000000000
     29382       257  POPC      H12B           -7.3049208521      -35.3675967070      -16.4877626052  MEMB      257             0.0000000000
     29383       257  POPC      C13            -6.1463600651      -37.3417163625      -18.1158642763  MEMB      257             0.0000000000
     29384       257  POPC      H13A           -6.8782885835      -37.5146661276      -18.8909572599  MEMB      257             0.0000000000
     29385       257  POPC      H13B           -5.1799231850      -37.7538134606      -18.3660152280  MEMB      257             0.0000000000
     29386       257  POPC      H13C           -6.6074862811      -37.6662924071      -17.1947708897  MEMB      257             0.0000000000
     29387       257  POPC      C14            -5.2302238607      -35.2460308341      -19.1514936297  MEMB      257             0.0000000000
     29388       257  POPC      H14A           -5.9522451303      -35.1572879494      -19.9497479762  MEMB      257             0.0000000000
     29389       257  POPC      H14B           -4.7839766800      -34.2691267638      -19.0378199111  MEMB      257             0.0000000000
     29390       257  POPC      H14C           -4.4654731005      -35.9675114776      -19.3985197400  MEMB      257             0.0000000000
     29391       257  POPC      C15            -4.8171100987      -35.7066212697      -16.7975389162  MEMB      257             0.0000000000
     29392       257  POPC      H15A           -4.0300960318      -36.4372158584      -16.9126063811  MEMB      257             0.0000000000
     29393       257  POPC      H15B           -5.2746724403      -35.9557049692      -15.8514976647  MEMB      257             0.0000000000
     29394       257  POPC      H15C           -4.4207465574      -34.7122742492      -16.6541168250  MEMB      257             0.0000000000
     29395       257  POPC      C11            -8.2754868422      -35.1189586208      -18.3082937405  MEMB      257             0.0000000000
     29396       257  POPC      H11A           -9.0425761726      -34.4352618634      -17.8858559644  MEMB      257             0.0000000000
     29397       257  POPC      H11B           -8.5730561690      -36.1872602750      -18.3754121989  MEMB      257             0.0000000000
     29398       257  POPC      P              -8.0486435752      -33.3028308674      -20.2928957841  MEMB      257             0.0000000000
     29399       257  POPC      O13            -9.4001521787      -32.7662750859      -20.5692652288  MEMB      257             0.0000000000
     29400       257  POPC      O14            -7.1685619722      -33.3102307975      -21.4942573431  MEMB      257             0.0000000000
     29401       257  POPC      O12            -8.1010083762      -34.7801019282      -19.7106733740  MEMB      257             0.0000000000
     29402       257  POPC      O11            -7.4051634077      -32.5181732728      -19.1505062222  MEMB      257             0.0000000000
     29403       257  POPC      C1             -6.8468894257      -31.2480659920      -19.6430100101  MEMB      257             0.0000000000
     29404       257  POPC      HA             -7.6810309158      -30.6982863250      -20.1290872222  MEMB      257             0.0000000000
     29405       257  POPC      HB             -5.9571859204      -31.4276691654      -20.2837061255  MEMB      257             0.0000000000
     29406       257  POPC      C2             -6.3172218271      -30.4687478990      -18.4218010933  MEMB      257             0.0000000000
     29407       257  POPC      HS             -5.8590650232      -29.5035197110      -18.7263468249  MEMB      257             0.0000000000
     29408       257  POPC      O21            -5.3555998843      -31.3057701649      -17.7214837803  MEMB      257             0.0000000000
     29409       257  POPC      C21            -4.6774803818      -30.6886938530      -16.7055100469  MEMB      257             0.0000000000
     29410       257  POPC      O22            -4.5504784044      -29.4870478264      -16.5736420572  MEMB      257             0.0000000000
     29411       257  POPC      C22            -4.0182343429      -31.7074496640      -15.8144219676  MEMB      257             0.0000000000
     29412       257  POPC      H2R            -3.2267181939      -32.2023706960      -16.4168140176  MEMB      257             0.0000000000
     29413       257  POPC      H2S            -4.7318311691      -32.4414684642      -15.3827773899  MEMB      257             0.0000000000
     29414       257  POPC      C3             -7.4528860962      -30.1660732530      -17.4983450498  MEMB      257             0.0000000000
     29415       257  POPC      HX             -8.3697910429      -29.7951505208      -18.0043321462  MEMB      257             0.0000000000
     29416       257  POPC      HY             -7.3007717415      -29.3991130214      -16.7090705243  MEMB      257             0.0000000000
     29417       257  POPC      O31            -7.5792411670      -31.3946381665      -16.7649437103  MEMB      257             0.0000000000
     29418       257  POPC      C31            -8.6408029300      -31.3733277582      -15.9012136209  MEMB      257             0.0000000000
     29419       257  POPC      O32            -9.4744693743      -30.4929161842      -15.9161951898  MEMB      257             0.0000000000
     29420       257  POPC      C32            -8.6484559359      -32.6061764703      -15.0412454031  MEMB      257             0.0000000000
     29421       257  POPC      H2X            -7.8021710539      -33.2759781660      -15.3048525491  MEMB      257             0.0000000000
     29422       257  POPC      H2Y            -9.4892475619      -33.2986479519      -15.2600461255  MEMB      257             0.0000000000
     29423       257  POPC      C23            -3.1480689229      -31.1280324968      -14.7166307907  MEMB      257             0.0000000000
     29424       257  POPC      H3R            -3.7187369222      -30.3723007996      -14.1356585666  MEMB      257             0.0000000000
     29425       257  POPC      H3S            -2.2351723286      -30.7092005864      -15.1915205002  MEMB      257             0.0000000000
     29426       257  POPC      C24            -2.4896953559      -32.0943585141      -13.6935804139  MEMB      257             0.0000000000
     29427       257  POPC      H4R            -2.1010649274      -31.4842703932      -12.8503249795  MEMB      257             0.0000000000
     29428       257  POPC      H4S            -1.7164963017      -32.5659929173      -14.3370437760  MEMB      257             0.0000000000
     29429       257  POPC      C25            -3.5261474826      -33.1145233571      -13.0878330746  MEMB      257             0.0000000000
     29430       257  POPC      H5R            -3.8209162245      -33.8490306321      -13.8675326618  MEMB      257             0.0000000000
     29431       257  POPC      H5S            -4.3808123677      -32.5242750244      -12.6935293725  MEMB      257             0.0000000000
     29432       257  POPC      C26            -2.9521813446      -33.8145709762      -11.8136213619  MEMB      257             0.0000000000
     29433       257  POPC      H6R            -2.2975345619      -33.0269651015      -11.3829994714  MEMB      257             0.0000000000
     29434       257  POPC      H6S            -2.2199232377      -34.5530411192      -12.2044940442  MEMB      257             0.0000000000
     29435       257  POPC      C27            -4.0317062858      -34.3031248504      -10.8374378026  MEMB      257             0.0000000000
     29436       257  POPC      H7R            -4.8296565245      -34.8116054285      -11.4197124200  MEMB      257             0.0000000000
     29437       257  POPC      H7S            -4.4433705405      -33.4478352189      -10.2600874562  MEMB      257             0.0000000000
     29438       257  POPC      C28            -3.5127200515      -35.2674930776       -9.7103748147  MEMB      257             0.0000000000
     29439       257  POPC      H8R            -3.0552716377      -36.1754968605      -10.1582486425  MEMB      257             0.0000000000
     29440       257  POPC      H8S            -4.4161036200      -35.5762039075       -9.1421176377  MEMB      257             0.0000000000
     29441       257  POPC      C29            -2.4166148055      -34.6979645072       -8.8392126682  MEMB      257             0.0000000000
     29442       257  POPC      H91            -1.5023264401      -34.3380000508       -9.3336849349  MEMB      257             0.0000000000
     29443       257  POPC      C210           -2.4542343695      -34.6834796128       -7.4857834379  MEMB      257             0.0000000000
     29444       257  POPC      H101           -1.5717564466      -34.2098884546       -7.0308724050  MEMB      257             0.0000000000
     29445       257  POPC      C211           -3.5635598962      -35.2042857411       -6.6301582451  MEMB      257             0.0000000000
     29446       257  POPC      H11R           -3.1374914930      -36.0688748714       -6.0776429734  MEMB      257             0.0000000000
     29447       257  POPC      H11S           -4.4618895984      -35.5244705811       -7.2000763037  MEMB      257             0.0000000000
     29448       257  POPC      C212           -4.0707838886      -34.1570911629       -5.6051000895  MEMB      257             0.0000000000
     29449       257  POPC      H12R           -3.1580148350      -33.7299946043       -5.1373797156  MEMB      257             0.0000000000
     29450       257  POPC      H12S           -4.6506400479      -34.7869391748       -4.8970183190  MEMB      257             0.0000000000
     29451       257  POPC      C213           -5.0004483280      -33.1813196878       -6.2494521441  MEMB      257             0.0000000000
     29452       257  POPC      H13R           -6.0170498349      -33.6096550389       -6.3812518729  MEMB      257             0.0000000000
     29453       257  POPC      H13S           -4.5753189848      -33.0601733916       -7.2687221001  MEMB      257             0.0000000000
     29454       257  POPC      C214           -5.1667741273      -31.8115863722       -5.5784675549  MEMB      257             0.0000000000
     29455       257  POPC      H14R           -5.6324856982      -30.9931749658       -6.1680746813  MEMB      257             0.0000000000
     29456       257  POPC      H14S           -4.1326585016      -31.4541600299       -5.3856668298  MEMB      257             0.0000000000
     29457       257  POPC      C215           -5.8942348726      -31.9052871449       -4.2674488238  MEMB      257             0.0000000000
     29458       257  POPC      H15R           -5.0293968593      -32.0898432659       -3.5949055151  MEMB      257             0.0000000000
     29459       257  POPC      H15S           -6.5533605927      -32.7995011147       -4.2834421811  MEMB      257             0.0000000000
     29460       257  POPC      C216           -6.9037165074      -30.7519963702       -3.9774597372  MEMB      257             0.0000000000
     29461       257  POPC      H16R           -7.6298308822      -30.6882309249       -4.8159185480  MEMB      257             0.0000000000
     29462       257  POPC      H16S           -6.4602729948      -29.7428702563       -3.8383800528  MEMB      257             0.0000000000
     29463       257  POPC      C217           -7.7317489971      -31.0462929423       -2.7750016214  MEMB      257             0.0000000000
     29464       257  POPC      H17R           -7.7163399843      -32.1024049111       -2.4304570296  MEMB      257             0.0000000000
     29465       257  POPC      H17S           -8.7325026356      -30.7264042491       -3.1362287533  MEMB      257             0.0000000000
     29466       257  POPC      C218           -7.3190105376      -30.0823994736       -1.6085463312  MEMB      257             0.0000000000
     29467       257  POPC      H18R           -6.9693312450      -29.0832182388       -1.9457143123  MEMB      257             0.0000000000
     29468       257  POPC      H18S           -6.5084242676      -30.5643881592       -1.0212160447  MEMB      257             0.0000000000
     29469       257  POPC      H18T           -8.1220783558      -29.8259517285       -0.8849191874  MEMB      257             0.0000000000
     29470       257  POPC      C33            -8.7334506219      -32.1750487046      -13.5178526968  MEMB      257             0.0000000000
     29471       257  POPC      H3X            -9.0088929431      -33.1665682613      -13.0991145978  MEMB      257             0.0000000000
     29472       257  POPC      H3Y            -9.5633030108      -31.4541119035      -13.3568666390  MEMB      257             0.0000000000
     29473       257  POPC      C34            -7.4024958900      -31.6067020555      -13.0596498787  MEMB      257             0.0000000000
     29474       257  POPC      H4X            -7.2456059517      -30.7284232029      -13.7217168925  MEMB      257             0.0000000000
     29475       257  POPC      H4Y            -6.7053591684      -32.4549367366      -13.2294120666  MEMB      257             0.0000000000
     29476       257  POPC      C35            -7.4078559044      -31.0975738051      -11.5782686897  MEMB      257             0.0000000000
     29477       257  POPC      H5X            -8.2978596244      -30.4326300570      -11.5702872826  MEMB      257             0.0000000000
     29478       257  POPC      H5Y            -6.5410893827      -30.4501279090      -11.3255826162  MEMB      257             0.0000000000
     29479       257  POPC      C36            -7.7030662727      -32.1069200396      -10.4822227641  MEMB      257             0.0000000000
     29480       257  POPC      H6X            -6.8571582680      -32.7776746957      -10.2198320454  MEMB      257             0.0000000000
     29481       257  POPC      H6Y            -8.4606394962      -32.7824925341      -10.9338929214  MEMB      257             0.0000000000
     29482       257  POPC      C37            -8.3172570868      -31.4905701431       -9.2254374807  MEMB      257             0.0000000000
     29483       257  POPC      H7X            -9.3102296069      -31.1178905509       -9.5562498251  MEMB      257             0.0000000000
     29484       257  POPC      H7Y            -7.7783168859      -30.5949798864       -8.8488970136  MEMB      257             0.0000000000
     29485       257  POPC      C38            -8.4530117531      -32.4257001004       -8.0090756327  MEMB      257             0.0000000000
     29486       257  POPC      H8X            -7.4351627983      -32.5901274470       -7.5952297982  MEMB      257             0.0000000000
     29487       257  POPC      H8Y            -8.8363933883      -33.3813397117       -8.4263196728  MEMB      257             0.0000000000
     29488       257  POPC      C39            -9.4744873655      -31.9637271259       -6.9717364665  MEMB      257             0.0000000000
     29489       257  POPC      H9X           -10.4671171492      -32.0133214994       -7.4682724948  MEMB      257             0.0000000000
     29490       257  POPC      H9Y            -9.1860254794      -30.9252106615       -6.7023022005  MEMB      257             0.0000000000
     29491       257  POPC      C310           -9.5971322035      -32.7578994743       -5.6800052883  MEMB      257             0.0000000000
     29492       257  POPC      H10X          -10.2393664061      -32.0774286272       -5.0809935797  MEMB      257             0.0000000000
     29493       257  POPC      H10Y           -8.6666706218      -32.6585200947       -5.0811010459  MEMB      257             0.0000000000
     29494       257  POPC      C311          -10.0848720096      -34.2422685117       -5.7932985422  MEMB      257             0.0000000000
     29495       257  POPC      H11X           -9.7805675667      -34.6635959806       -6.7752369761  MEMB      257             0.0000000000
     29496       257  POPC      H11Y          -11.1944090105      -34.2774937221       -5.7484875330  MEMB      257             0.0000000000
     29497       257  POPC      C312           -9.4518791530      -35.1190139353       -4.6837701273  MEMB      257             0.0000000000
     29498       257  POPC      H12X           -8.3435899960      -35.1046891935       -4.7600001612  MEMB      257             0.0000000000
     29499       257  POPC      H12Y           -9.7436861643      -36.1522083697       -4.9695658266  MEMB      257             0.0000000000
     29500       257  POPC      C313           -9.8895681478      -34.8721772687       -3.2228016923  MEMB      257             0.0000000000
     29501       257  POPC      H13X          -10.7371372924      -35.5481197896       -2.9798014521  MEMB      257             0.0000000000
     29502       257  POPC      H13Y          -10.3004810966      -33.8402865612       -3.2487452268  MEMB      257             0.0000000000
     29503       257  POPC      C314           -8.7623785720      -34.9032681697       -2.2207152843  MEMB      257             0.0000000000
     29504       257  POPC      H14X           -9.1147815800      -34.5767533711       -1.2189569488  MEMB      257             0.0000000000
     29505       257  POPC      H14Y           -7.9846421385      -34.1984877122       -2.5850381414  MEMB      257             0.0000000000
     29506       257  POPC      C315           -8.0603565208      -36.2726896562       -2.3101547462  MEMB      257             0.0000000000
     29507       257  POPC      H15X           -7.6099532964      -36.5130826839       -3.2969011963  MEMB      257             0.0000000000
     29508       257  POPC      H15Y           -8.9134544784      -36.9425139101       -2.0695702335  MEMB      257             0.0000000000
     29509       257  POPC      C316           -6.8081017577      -36.5441211131       -1.4069698242  MEMB      257             0.0000000000
     29510       257  POPC      H16X           -5.8374422402      -36.2229003693       -1.8416639603  MEMB      257             0.0000000000
     29511       257  POPC      H16Y           -6.7023332755      -37.6329799381       -1.2132676017  MEMB      257             0.0000000000
     29512       257  POPC      H16Z           -6.9774283736      -35.9353976755       -0.4931285144  MEMB      257             0.0000000000
     29513       258  POPC      N             -21.0334376675       28.1486500033      -20.2756069055  MEMB      258             0.0000000000
     29514       258  POPC      C12           -21.5623822295       28.1826345746      -18.7932936605  MEMB      258             0.0000000000
     29515       258  POPC      H12A          -21.1750952958       29.1112364573      -18.4007287630  MEMB      258             0.0000000000
     29516       258  POPC      H12B          -21.0202813311       27.3782201948      -18.3184840981  MEMB      258             0.0000000000
     29517       258  POPC      C13           -21.4522346144       26.8249636321      -20.9671537311  MEMB      258             0.0000000000
     29518       258  POPC      H13A          -21.1490736304       26.6945324003      -21.9954925707  MEMB      258             0.0000000000
     29519       258  POPC      H13B          -21.2682422107       25.9261000401      -20.3974248252  MEMB      258             0.0000000000
     29520       258  POPC      H13C          -22.5278628951       26.9031386091      -21.0247079547  MEMB      258             0.0000000000
     29521       258  POPC      C14           -21.6519244919       29.2902785641      -21.0962442729  MEMB      258             0.0000000000
     29522       258  POPC      H14A          -21.2907852240       30.2446767103      -20.7425455522  MEMB      258             0.0000000000
     29523       258  POPC      H14B          -21.2477592192       29.2168593128      -22.0950735243  MEMB      258             0.0000000000
     29524       258  POPC      H14C          -22.7192963603       29.1257846595      -21.0885643589  MEMB      258             0.0000000000
     29525       258  POPC      C15           -19.5723931369       28.3214378226      -20.2915860650  MEMB      258             0.0000000000
     29526       258  POPC      H15A          -19.1435211292       27.6182719141      -19.5929971144  MEMB      258             0.0000000000
     29527       258  POPC      H15B          -19.3199510408       29.3419191165      -20.0440160051  MEMB      258             0.0000000000
     29528       258  POPC      H15C          -19.1277639966       28.2791344554      -21.2749045853  MEMB      258             0.0000000000
     29529       258  POPC      C11           -23.0934546073       28.0546127063      -18.5049877076  MEMB      258             0.0000000000
     29530       258  POPC      H11A          -23.4813154128       28.8997085609      -19.1130158024  MEMB      258             0.0000000000
     29531       258  POPC      H11B          -23.2922832670       28.2117077362      -17.4232717895  MEMB      258             0.0000000000
     29532       258  POPC      P             -23.7440341285       25.6243465252      -17.8165625661  MEMB      258             0.0000000000
     29533       258  POPC      O13           -22.4836366366       25.4366816263      -17.0360854420  MEMB      258             0.0000000000
     29534       258  POPC      O14           -24.3080216239       24.4052201159      -18.5170460367  MEMB      258             0.0000000000
     29535       258  POPC      O12           -23.5477494635       26.7882751463      -18.8895812849  MEMB      258             0.0000000000
     29536       258  POPC      O11           -24.8349608888       26.2514384837      -16.8118523326  MEMB      258             0.0000000000
     29537       258  POPC      C1            -26.1077383294       26.5717692485      -17.2797448044  MEMB      258             0.0000000000
     29538       258  POPC      HA            -26.5866910741       25.7391336834      -17.8379950196  MEMB      258             0.0000000000
     29539       258  POPC      HB            -25.9867936399       27.3080505447      -18.1028992954  MEMB      258             0.0000000000
     29540       258  POPC      C2            -27.0952794313       27.0997295957      -16.2553403907  MEMB      258             0.0000000000
     29541       258  POPC      HS            -27.8342303888       27.7596954502      -16.7580507695  MEMB      258             0.0000000000
     29542       258  POPC      O21           -26.4124448335       27.9935383398      -15.3424944518  MEMB      258             0.0000000000
     29543       258  POPC      C21           -25.9483648192       29.0756802459      -15.8028864355  MEMB      258             0.0000000000
     29544       258  POPC      O22           -26.0586206257       29.5890792541      -16.9483332551  MEMB      258             0.0000000000
     29545       258  POPC      C22           -25.4392156992       29.7672321590      -14.6055138632  MEMB      258             0.0000000000
     29546       258  POPC      H2R           -25.5445814927       29.2587949325      -13.6233170169  MEMB      258             0.0000000000
     29547       258  POPC      H2S           -25.9662393720       30.7381918840      -14.4880239003  MEMB      258             0.0000000000
     29548       258  POPC      C3            -27.7375532839       25.8396983706      -15.5384621238  MEMB      258             0.0000000000
     29549       258  POPC      HX            -28.3109624742       25.2856508156      -16.3121251906  MEMB      258             0.0000000000
     29550       258  POPC      HY            -28.4557523104       26.0697143305      -14.7226169657  MEMB      258             0.0000000000
     29551       258  POPC      O31           -26.6808058363       25.0013590244      -15.1574018732  MEMB      258             0.0000000000
     29552       258  POPC      C31           -26.0895580084       25.2169831296      -13.9306514669  MEMB      258             0.0000000000
     29553       258  POPC      O32           -26.6524398079       25.7982991427      -13.0257681881  MEMB      258             0.0000000000
     29554       258  POPC      C32           -24.8208188656       24.3925867887      -13.7378574834  MEMB      258             0.0000000000
     29555       258  POPC      H2X           -24.1093263643       24.8990149686      -14.4246106019  MEMB      258             0.0000000000
     29556       258  POPC      H2Y           -24.9756445711       23.3909532395      -14.1929176493  MEMB      258             0.0000000000
     29557       258  POPC      C23           -23.9270025784       29.9887298436      -14.8185548555  MEMB      258             0.0000000000
     29558       258  POPC      H3R           -23.5488221611       30.7532918321      -14.1066942492  MEMB      258             0.0000000000
     29559       258  POPC      H3S           -23.7736171237       30.3547359341      -15.8562609395  MEMB      258             0.0000000000
     29560       258  POPC      C24           -23.0495953792       28.8310775915      -14.5329654431  MEMB      258             0.0000000000
     29561       258  POPC      H4R           -22.0089597154       29.0024309861      -14.8823025634  MEMB      258             0.0000000000
     29562       258  POPC      H4S           -23.4372289688       27.9364489808      -15.0656012015  MEMB      258             0.0000000000
     29563       258  POPC      C25           -23.0424028482       28.3983324355      -13.0680193571  MEMB      258             0.0000000000
     29564       258  POPC      H5R           -22.6975994999       27.3544185892      -12.9077831387  MEMB      258             0.0000000000
     29565       258  POPC      H5S           -24.0372689085       28.4037274129      -12.5735163612  MEMB      258             0.0000000000
     29566       258  POPC      C26           -21.9774926533       29.2110992695      -12.1917850919  MEMB      258             0.0000000000
     29567       258  POPC      H6R           -22.3432928711       30.2588559382      -12.1396591886  MEMB      258             0.0000000000
     29568       258  POPC      H6S           -21.0164842921       29.3823011475      -12.7223260027  MEMB      258             0.0000000000
     29569       258  POPC      C27           -21.6002863991       28.4798439520      -10.9402713483  MEMB      258             0.0000000000
     29570       258  POPC      H7R           -20.6780872722       28.9663538743      -10.5566333110  MEMB      258             0.0000000000
     29571       258  POPC      H7S           -21.1799172512       27.4906357413      -11.2214785895  MEMB      258             0.0000000000
     29572       258  POPC      C28           -22.5990242558       28.3674516607       -9.8213667540  MEMB      258             0.0000000000
     29573       258  POPC      H8R           -22.0569795040       27.7643569904       -9.0619027555  MEMB      258             0.0000000000
     29574       258  POPC      H8S           -23.4045937836       27.7609309937      -10.2877477447  MEMB      258             0.0000000000
     29575       258  POPC      C29           -23.2286067157       29.6849650474       -9.3839150454  MEMB      258             0.0000000000
     29576       258  POPC      H91           -24.1274093026       30.0052005504       -9.9312747093  MEMB      258             0.0000000000
     29577       258  POPC      C210          -22.7754600281       30.5498848024       -8.4569973853  MEMB      258             0.0000000000
     29578       258  POPC      H101          -23.3075513649       31.4795663515       -8.2068547149  MEMB      258             0.0000000000
     29579       258  POPC      C211          -21.5946046421       30.3532434295       -7.6134650707  MEMB      258             0.0000000000
     29580       258  POPC      H11R          -20.9902767074       31.2846403811       -7.5733607237  MEMB      258             0.0000000000
     29581       258  POPC      H11S          -20.9559265616       29.5835486361       -8.0971817730  MEMB      258             0.0000000000
     29582       258  POPC      C212          -21.7375884128       29.6145972202       -6.2713359703  MEMB      258             0.0000000000
     29583       258  POPC      H12R          -20.7449631971       29.4095855305       -5.8163786838  MEMB      258             0.0000000000
     29584       258  POPC      H12S          -22.0759783856       28.5720189383       -6.4525658071  MEMB      258             0.0000000000
     29585       258  POPC      C213          -22.5521591896       30.3321239002       -5.1502093458  MEMB      258             0.0000000000
     29586       258  POPC      H13R          -23.6158148901       30.2911949968       -5.4684583735  MEMB      258             0.0000000000
     29587       258  POPC      H13S          -22.2840637214       31.4102004676       -5.1642410636  MEMB      258             0.0000000000
     29588       258  POPC      C214          -22.3623201381       29.6760634306       -3.7988145814  MEMB      258             0.0000000000
     29589       258  POPC      H14R          -22.4217563920       28.5669172475       -3.7746643018  MEMB      258             0.0000000000
     29590       258  POPC      H14S          -23.2415768918       29.9296027701       -3.1687775326  MEMB      258             0.0000000000
     29591       258  POPC      C215          -21.0849026656       30.1630410148       -3.1214860637  MEMB      258             0.0000000000
     29592       258  POPC      H15R          -21.3224094220       31.1927938063       -2.7786739449  MEMB      258             0.0000000000
     29593       258  POPC      H15S          -20.1786166652       30.3124959121       -3.7464895366  MEMB      258             0.0000000000
     29594       258  POPC      C216          -20.8036161411       29.4117838668       -1.7756818403  MEMB      258             0.0000000000
     29595       258  POPC      H16R          -20.3624146698       28.4239649733       -2.0284174825  MEMB      258             0.0000000000
     29596       258  POPC      H16S          -21.7217431358       29.1915881409       -1.1901239831  MEMB      258             0.0000000000
     29597       258  POPC      C217          -19.7799044650       30.0688201099       -0.8818628987  MEMB      258             0.0000000000
     29598       258  POPC      H17R          -20.0905540157       31.1184413907       -0.6918277510  MEMB      258             0.0000000000
     29599       258  POPC      H17S          -18.8047947163       30.0650781996       -1.4142810625  MEMB      258             0.0000000000
     29600       258  POPC      C218          -19.4820461811       29.3419545578        0.4263175133  MEMB      258             0.0000000000
     29601       258  POPC      H18R          -18.8787118568       30.0326276311        1.0534378831  MEMB      258             0.0000000000
     29602       258  POPC      H18S          -18.7603014468       28.5291259166        0.1967203722  MEMB      258             0.0000000000
     29603       258  POPC      H18T          -20.2760657966       28.8407068948        1.0201236610  MEMB      258             0.0000000000
     29604       258  POPC      C33           -24.3939708536       24.2961904307      -12.2680224534  MEMB      258             0.0000000000
     29605       258  POPC      H3X           -25.1249276607       23.5730071006      -11.8472738762  MEMB      258             0.0000000000
     29606       258  POPC      H3Y           -24.4581090361       25.3120577832      -11.8228029189  MEMB      258             0.0000000000
     29607       258  POPC      C34           -22.9535487791       23.6501841291      -12.2351880936  MEMB      258             0.0000000000
     29608       258  POPC      H4X           -22.2596022564       24.4496208344      -12.5723235231  MEMB      258             0.0000000000
     29609       258  POPC      H4Y           -22.9072967569       22.7208018210      -12.8421721841  MEMB      258             0.0000000000
     29610       258  POPC      C35           -22.4808453761       23.2166405900      -10.8008356765  MEMB      258             0.0000000000
     29611       258  POPC      H5X           -21.6161309772       22.5644573288      -11.0483185970  MEMB      258             0.0000000000
     29612       258  POPC      H5Y           -23.3326350480       22.6540716515      -10.3623248969  MEMB      258             0.0000000000
     29613       258  POPC      C36           -22.2509414451       24.2981146772       -9.7231096450  MEMB      258             0.0000000000
     29614       258  POPC      H6X           -22.6660298296       25.2384931408      -10.1446677980  MEMB      258             0.0000000000
     29615       258  POPC      H6Y           -21.1757211050       24.5250813190       -9.5596830369  MEMB      258             0.0000000000
     29616       258  POPC      C37           -22.8418417537       23.9994759144       -8.3348867630  MEMB      258             0.0000000000
     29617       258  POPC      H7X           -22.4438188363       23.0712578621       -7.8719501424  MEMB      258             0.0000000000
     29618       258  POPC      H7Y           -23.9141208234       23.7579417210       -8.4967498349  MEMB      258             0.0000000000
     29619       258  POPC      C38           -22.6028204797       25.1306676468       -7.3388053843  MEMB      258             0.0000000000
     29620       258  POPC      H8X           -23.0415972331       26.0561012105       -7.7693505771  MEMB      258             0.0000000000
     29621       258  POPC      H8Y           -21.5010780904       25.2070505901       -7.2177670062  MEMB      258             0.0000000000
     29622       258  POPC      C39           -23.3035991673       24.9170592641       -5.9559065302  MEMB      258             0.0000000000
     29623       258  POPC      H9X           -23.0945661771       25.7845923391       -5.2940816440  MEMB      258             0.0000000000
     29624       258  POPC      H9Y           -22.8746566983       24.0525836813       -5.4054413235  MEMB      258             0.0000000000
     29625       258  POPC      C310          -24.8865324326       24.8247759364       -5.9858933409  MEMB      258             0.0000000000
     29626       258  POPC      H10X          -25.2015301449       23.8681870580       -6.4549720575  MEMB      258             0.0000000000
     29627       258  POPC      H10Y          -25.2956202604       25.6674361375       -6.5832974390  MEMB      258             0.0000000000
     29628       258  POPC      C311          -25.4720667852       24.7211820888       -4.5452298104  MEMB      258             0.0000000000
     29629       258  POPC      H11X          -24.6626472217       24.2630486022       -3.9375502004  MEMB      258             0.0000000000
     29630       258  POPC      H11Y          -26.4290929444       24.1596868226       -4.6013109142  MEMB      258             0.0000000000
     29631       258  POPC      C312          -25.7747671452       26.0877707513       -3.8837478351  MEMB      258             0.0000000000
     29632       258  POPC      H12X          -26.5327222194       26.6524042708       -4.4677118829  MEMB      258             0.0000000000
     29633       258  POPC      H12Y          -24.7583580973       26.5286573203       -3.9665295246  MEMB      258             0.0000000000
     29634       258  POPC      C313          -26.0529406792       25.9241114393       -2.3426993496  MEMB      258             0.0000000000
     29635       258  POPC      H13X          -25.1565796081       25.5826030088       -1.7821380408  MEMB      258             0.0000000000
     29636       258  POPC      H13Y          -26.8797256077       25.1841747873       -2.2857657921  MEMB      258             0.0000000000
     29637       258  POPC      C314          -26.5128316508       27.2344053137       -1.6170027004  MEMB      258             0.0000000000
     29638       258  POPC      H14X          -26.9200596723       26.8955427783       -0.6404481827  MEMB      258             0.0000000000
     29639       258  POPC      H14Y          -27.3985227550       27.6909052394       -2.1084093151  MEMB      258             0.0000000000
     29640       258  POPC      C315          -25.4077753719       28.2070644633       -1.4526750264  MEMB      258             0.0000000000
     29641       258  POPC      H15X          -26.0380127395       29.0353979120       -1.0641074675  MEMB      258             0.0000000000
     29642       258  POPC      H15Y          -25.1007649456       28.7790995201       -2.3542534880  MEMB      258             0.0000000000
     29643       258  POPC      C316          -24.2147820424       27.8986044944       -0.6201278017  MEMB      258             0.0000000000
     29644       258  POPC      H16X          -24.4918819161       27.4041224982        0.3353946025  MEMB      258             0.0000000000
     29645       258  POPC      H16Y          -23.5111773285       28.7380914136       -0.4343234323  MEMB      258             0.0000000000
     29646       258  POPC      H16Z          -23.5865181516       27.1626563064       -1.1660093755  MEMB      258             0.0000000000
     29647       259  POPC      N             -28.0990640675      -24.9712842787      -19.4659765433  MEMB      259             0.0000000000
     29648       259  POPC      C12           -29.5449800181      -24.5605583473      -19.2511746562  MEMB      259             0.0000000000
     29649       259  POPC      H12A          -30.1518854432      -25.2689926072      -18.7069442958  MEMB      259             0.0000000000
     29650       259  POPC      H12B          -29.9678416967      -24.4618398125      -20.2400339179  MEMB      259             0.0000000000
     29651       259  POPC      C13           -27.4175815968      -25.2028810708      -18.1736171290  MEMB      259             0.0000000000
     29652       259  POPC      H13A          -28.0911815400      -25.9588812565      -17.7979484728  MEMB      259             0.0000000000
     29653       259  POPC      H13B          -26.4300115637      -25.6395541945      -18.1941611198  MEMB      259             0.0000000000
     29654       259  POPC      H13C          -27.3970575467      -24.3473858020      -17.5147495323  MEMB      259             0.0000000000
     29655       259  POPC      C14           -27.9911664259      -26.2584444376      -20.2624432357  MEMB      259             0.0000000000
     29656       259  POPC      H14A          -28.5939548821      -26.1363237950      -21.1502115943  MEMB      259             0.0000000000
     29657       259  POPC      H14B          -26.9694539020      -26.4594255604      -20.5489920326  MEMB      259             0.0000000000
     29658       259  POPC      H14C          -28.4312881460      -27.1137313402      -19.7713447346  MEMB      259             0.0000000000
     29659       259  POPC      C15           -27.3551991520      -23.8863148547      -20.2442868884  MEMB      259             0.0000000000
     29660       259  POPC      H15A          -27.1354082643      -23.0151912580      -19.6449241480  MEMB      259             0.0000000000
     29661       259  POPC      H15B          -28.0613172184      -23.6220617087      -21.0175704685  MEMB      259             0.0000000000
     29662       259  POPC      H15C          -26.4400385684      -24.2394615619      -20.6961367493  MEMB      259             0.0000000000
     29663       259  POPC      C11           -29.9205665012      -23.2520279988      -18.5011119746  MEMB      259             0.0000000000
     29664       259  POPC      H11A          -29.4760321761      -23.1046230439      -17.4936487634  MEMB      259             0.0000000000
     29665       259  POPC      H11B          -31.0296047486      -23.3139968544      -18.5238049205  MEMB      259             0.0000000000
     29666       259  POPC      P             -29.3716606250      -20.6582196312      -18.6330188562  MEMB      259             0.0000000000
     29667       259  POPC      O13           -30.6791315098      -20.3870804582      -18.0032005006  MEMB      259             0.0000000000
     29668       259  POPC      O14           -28.8427622338      -19.7545400088      -19.6305265379  MEMB      259             0.0000000000
     29669       259  POPC      O12           -29.6320890942      -22.0605206538      -19.3046913543  MEMB      259             0.0000000000
     29670       259  POPC      O11           -28.3374713969      -20.9403615717      -17.5299522811  MEMB      259             0.0000000000
     29671       259  POPC      C1            -26.9601400696      -20.6428271673      -17.9047589602  MEMB      259             0.0000000000
     29672       259  POPC      HA            -26.7934464997      -19.5872898153      -18.2086917874  MEMB      259             0.0000000000
     29673       259  POPC      HB            -26.6667357798      -21.2618766769      -18.7794089906  MEMB      259             0.0000000000
     29674       259  POPC      C2            -26.0403703661      -20.8431055523      -16.7072889631  MEMB      259             0.0000000000
     29675       259  POPC      HS            -25.0446828990      -20.4973994170      -17.0585935396  MEMB      259             0.0000000000
     29676       259  POPC      O21           -26.1848020283      -22.2453815185      -16.3261336114  MEMB      259             0.0000000000
     29677       259  POPC      C21           -25.2561221441      -22.7228981206      -15.5476754147  MEMB      259             0.0000000000
     29678       259  POPC      O22           -24.1828680612      -22.1363195750      -15.3500843000  MEMB      259             0.0000000000
     29679       259  POPC      C22           -25.7159277840      -24.1147910230      -15.0641140513  MEMB      259             0.0000000000
     29680       259  POPC      H2R           -25.0179408345      -24.9233002358      -15.3698069180  MEMB      259             0.0000000000
     29681       259  POPC      H2S           -26.7386455505      -24.2965154559      -15.4582537698  MEMB      259             0.0000000000
     29682       259  POPC      C3            -26.2842384343      -19.8877579954      -15.5084783835  MEMB      259             0.0000000000
     29683       259  POPC      HX            -25.7563065004      -18.9414618107      -15.7536968927  MEMB      259             0.0000000000
     29684       259  POPC      HY            -25.7632429904      -20.2441932636      -14.5942362981  MEMB      259             0.0000000000
     29685       259  POPC      O31           -27.6725244953      -19.6337417626      -15.2520087106  MEMB      259             0.0000000000
     29686       259  POPC      C31           -28.1696851809      -19.6700641846      -14.0059642260  MEMB      259             0.0000000000
     29687       259  POPC      O32           -27.5225196602      -19.7763224477      -12.9984849952  MEMB      259             0.0000000000
     29688       259  POPC      C32           -29.7374197926      -19.7607789639      -14.0243908966  MEMB      259             0.0000000000
     29689       259  POPC      H2X           -30.0627065784      -20.6076895741      -14.6656801942  MEMB      259             0.0000000000
     29690       259  POPC      H2Y           -30.1233024735      -18.7534617885      -14.2903373588  MEMB      259             0.0000000000
     29691       259  POPC      C23           -25.6538836206      -24.1520428431      -13.4571554597  MEMB      259             0.0000000000
     29692       259  POPC      H3R           -24.7945798389      -23.5905371102      -13.0321505426  MEMB      259             0.0000000000
     29693       259  POPC      H3S           -25.5642467060      -25.2585303374      -13.4127509184  MEMB      259             0.0000000000
     29694       259  POPC      C24           -26.9161113258      -23.6909415486      -12.8758279741  MEMB      259             0.0000000000
     29695       259  POPC      H4R           -27.8246855931      -24.2298316622      -13.2199375481  MEMB      259             0.0000000000
     29696       259  POPC      H4S           -27.0807989237      -22.6208783988      -13.1251551819  MEMB      259             0.0000000000
     29697       259  POPC      C25           -26.9233369657      -23.7741138684      -11.3133605106  MEMB      259             0.0000000000
     29698       259  POPC      H5R           -26.1850035216      -24.5435703143      -11.0017168845  MEMB      259             0.0000000000
     29699       259  POPC      H5S           -27.8994385348      -24.0043683367      -10.8353125905  MEMB      259             0.0000000000
     29700       259  POPC      C26           -26.4678158738      -22.3797523904      -10.7115250660  MEMB      259             0.0000000000
     29701       259  POPC      H6R           -27.2302811502      -21.6029652947      -10.9341660834  MEMB      259             0.0000000000
     29702       259  POPC      H6S           -25.5320784313      -22.0292350266      -11.1971725072  MEMB      259             0.0000000000
     29703       259  POPC      C27           -26.1866198811      -22.4440221769       -9.2093198534  MEMB      259             0.0000000000
     29704       259  POPC      H7R           -26.7415046682      -23.2983665666       -8.7660148487  MEMB      259             0.0000000000
     29705       259  POPC      H7S           -26.5707458369      -21.4958855748       -8.7759554196  MEMB      259             0.0000000000
     29706       259  POPC      C28           -24.6948941900      -22.5701475324       -8.8095457528  MEMB      259             0.0000000000
     29707       259  POPC      H8R           -24.5050535138      -22.3038344940       -7.7477745590  MEMB      259             0.0000000000
     29708       259  POPC      H8S           -24.1256658036      -21.8444563016       -9.4289587174  MEMB      259             0.0000000000
     29709       259  POPC      C29           -24.1109351166      -23.9259264116       -9.0821998362  MEMB      259             0.0000000000
     29710       259  POPC      H91           -23.6286950263      -24.0786265720      -10.0589935309  MEMB      259             0.0000000000
     29711       259  POPC      C210          -24.1565905759      -24.9607763701       -8.2492767665  MEMB      259             0.0000000000
     29712       259  POPC      H101          -23.5890319373      -25.8696481059       -8.4979313335  MEMB      259             0.0000000000
     29713       259  POPC      C211          -24.7966786878      -24.9788717039       -6.8961383106  MEMB      259             0.0000000000
     29714       259  POPC      H11R          -25.3342086016      -24.0256445821       -6.7044599842  MEMB      259             0.0000000000
     29715       259  POPC      H11S          -24.1766867162      -25.1575374326       -5.9916988656  MEMB      259             0.0000000000
     29716       259  POPC      C212          -25.9765613502      -26.0662582510       -6.9456280424  MEMB      259             0.0000000000
     29717       259  POPC      H12R          -25.7147110657      -27.0469500594       -7.3972914015  MEMB      259             0.0000000000
     29718       259  POPC      H12S          -26.8169371227      -25.6393310398       -7.5336949288  MEMB      259             0.0000000000
     29719       259  POPC      C213          -26.4193680759      -26.4688942069       -5.5213426444  MEMB      259             0.0000000000
     29720       259  POPC      H13R          -25.5589465027      -26.5278443788       -4.8209701347  MEMB      259             0.0000000000
     29721       259  POPC      H13S          -26.8874785938      -27.4742110562       -5.4540250458  MEMB      259             0.0000000000
     29722       259  POPC      C214          -27.3497969375      -25.3686408331       -5.0203368766  MEMB      259             0.0000000000
     29723       259  POPC      H14R          -27.2767234864      -24.3314864799       -5.4118627600  MEMB      259             0.0000000000
     29724       259  POPC      H14S          -27.1893218691      -25.2237724658       -3.9305752822  MEMB      259             0.0000000000
     29725       259  POPC      C215          -28.8970016597      -25.6412976507       -5.2736004175  MEMB      259             0.0000000000
     29726       259  POPC      H15R          -28.9402841045      -26.7343613185       -5.0795415116  MEMB      259             0.0000000000
     29727       259  POPC      H15S          -29.0210760785      -25.3485236157       -6.3381232685  MEMB      259             0.0000000000
     29728       259  POPC      C216          -29.9322437203      -25.0812350442       -4.2001703988  MEMB      259             0.0000000000
     29729       259  POPC      H16R          -30.9272330284      -25.4507708556       -4.5284386853  MEMB      259             0.0000000000
     29730       259  POPC      H16S          -29.9936674483      -23.9719910367       -4.1889493361  MEMB      259             0.0000000000
     29731       259  POPC      C217          -29.5760286783      -25.4268159490       -2.7133646771  MEMB      259             0.0000000000
     29732       259  POPC      H17R          -30.4697485780      -25.1237539220       -2.1270719948  MEMB      259             0.0000000000
     29733       259  POPC      H17S          -28.7895372473      -24.6976883583       -2.4233226276  MEMB      259             0.0000000000
     29734       259  POPC      C218          -29.2251433571      -26.9030859194       -2.4300268730  MEMB      259             0.0000000000
     29735       259  POPC      H18R          -30.0130642367      -27.5619813233       -2.8535323137  MEMB      259             0.0000000000
     29736       259  POPC      H18S          -28.9539481987      -27.2974069603       -1.4273872101  MEMB      259             0.0000000000
     29737       259  POPC      H18T          -28.3399813624      -27.1709372918       -3.0457084984  MEMB      259             0.0000000000
     29738       259  POPC      C33           -30.2249720984      -19.9163367813      -12.5808350125  MEMB      259             0.0000000000
     29739       259  POPC      H3X           -31.2599913728      -19.5523414758      -12.4060102818  MEMB      259             0.0000000000
     29740       259  POPC      H3Y           -29.5814352621      -19.4285794165      -11.8177658471  MEMB      259             0.0000000000
     29741       259  POPC      C34           -30.2161944442      -21.3834878879      -12.2248909490  MEMB      259             0.0000000000
     29742       259  POPC      H4X           -29.3437676931      -21.9506367502      -12.6141658907  MEMB      259             0.0000000000
     29743       259  POPC      H4Y           -31.0906008621      -21.8751220386      -12.7024154584  MEMB      259             0.0000000000
     29744       259  POPC      C35           -30.2884049075      -21.6725999790      -10.6792265868  MEMB      259             0.0000000000
     29745       259  POPC      H5X           -29.5495167119      -21.1506654366      -10.0342853403  MEMB      259             0.0000000000
     29746       259  POPC      H5Y           -30.0384402975      -22.7549847155      -10.6960210635  MEMB      259             0.0000000000
     29747       259  POPC      C36           -31.6415673499      -21.4057027455       -9.9461487088  MEMB      259             0.0000000000
     29748       259  POPC      H6X           -32.4402810705      -21.9219459155      -10.5204926550  MEMB      259             0.0000000000
     29749       259  POPC      H6Y           -31.7853317240      -20.3078097176      -10.0371632993  MEMB      259             0.0000000000
     29750       259  POPC      C37           -31.6042659914      -21.8281635882       -8.4355876059  MEMB      259             0.0000000000
     29751       259  POPC      H7X           -31.2778917834      -22.8758902113       -8.2621815443  MEMB      259             0.0000000000
     29752       259  POPC      H7Y           -32.6252358917      -21.7779384267       -8.0003640830  MEMB      259             0.0000000000
     29753       259  POPC      C38           -30.7380071883      -20.8062610073       -7.5615675388  MEMB      259             0.0000000000
     29754       259  POPC      H8X           -31.3338470685      -19.8798794151       -7.4162642284  MEMB      259             0.0000000000
     29755       259  POPC      H8Y           -29.8133821904      -20.5955034440       -8.1403340819  MEMB      259             0.0000000000
     29756       259  POPC      C39           -30.2269797944      -21.3271406973       -6.2375806539  MEMB      259             0.0000000000
     29757       259  POPC      H9X           -29.5777005898      -22.2272118451       -6.2888572117  MEMB      259             0.0000000000
     29758       259  POPC      H9Y           -31.1475556562      -21.6490825092       -5.7054012928  MEMB      259             0.0000000000
     29759       259  POPC      C310          -29.5349517257      -20.2758979924       -5.3499743542  MEMB      259             0.0000000000
     29760       259  POPC      H10X          -29.5083907256      -20.6688636697       -4.3111319584  MEMB      259             0.0000000000
     29761       259  POPC      H10Y          -30.1021212787      -19.3508121902       -5.1115298783  MEMB      259             0.0000000000
     29762       259  POPC      C311          -28.1298514817      -20.0091696922       -5.7955760711  MEMB      259             0.0000000000
     29763       259  POPC      H11X          -28.0927275915      -19.6804297253       -6.8561764743  MEMB      259             0.0000000000
     29764       259  POPC      H11Y          -27.6167916128      -20.9818109348       -5.6372751413  MEMB      259             0.0000000000
     29765       259  POPC      C312          -27.3635550388      -18.9706351140       -5.0964148319  MEMB      259             0.0000000000
     29766       259  POPC      H12X          -28.0354900074      -18.0875921639       -5.0411012298  MEMB      259             0.0000000000
     29767       259  POPC      H12Y          -26.5123780448      -18.7582622478       -5.7781155283  MEMB      259             0.0000000000
     29768       259  POPC      C313          -26.8317313986      -19.2676942546       -3.6435448669  MEMB      259             0.0000000000
     29769       259  POPC      H13X          -27.7309267673      -19.6037735315       -3.0842422225  MEMB      259             0.0000000000
     29770       259  POPC      H13Y          -26.4693918342      -18.2595568294       -3.3491135247  MEMB      259             0.0000000000
     29771       259  POPC      C314          -25.5675056803      -20.2062828745       -3.5450263916  MEMB      259             0.0000000000
     29772       259  POPC      H14X          -24.9985884068      -20.2004030168       -2.5907614331  MEMB      259             0.0000000000
     29773       259  POPC      H14Y          -24.7886101526      -19.8534974758       -4.2543818593  MEMB      259             0.0000000000
     29774       259  POPC      C315          -25.8544320371      -21.7645197914       -3.6057042954  MEMB      259             0.0000000000
     29775       259  POPC      H15X          -24.9201756028      -22.3205322171       -3.3769329925  MEMB      259             0.0000000000
     29776       259  POPC      H15Y          -26.2649453243      -22.0434450706       -4.5996870658  MEMB      259             0.0000000000
     29777       259  POPC      C316          -26.8445207514      -22.4646030190       -2.6233019495  MEMB      259             0.0000000000
     29778       259  POPC      H16X          -27.8937444880      -22.1236348772       -2.7544196764  MEMB      259             0.0000000000
     29779       259  POPC      H16Y          -26.4598773951      -22.1853782614       -1.6191093872  MEMB      259             0.0000000000
     29780       259  POPC      H16Z          -26.7693037393      -23.5700495328       -2.7048579376  MEMB      259             0.0000000000
     29781       260  POPC      N              34.6714258152      -12.3517320151      -20.2916426773  MEMB      260             0.0000000000
     29782       260  POPC      C12            33.4029223869      -12.9602105015      -20.7847521727  MEMB      260             0.0000000000
     29783       260  POPC      H12A           33.5803918143      -14.0236207594      -20.8484956517  MEMB      260             0.0000000000
     29784       260  POPC      H12B           33.2358319806      -12.6298452873      -21.7993159593  MEMB      260             0.0000000000
     29785       260  POPC      C13            35.0585946552      -13.0819061576      -19.0156455480  MEMB      260             0.0000000000
     29786       260  POPC      H13A           34.2789737236      -12.8059084688      -18.3210833976  MEMB      260             0.0000000000
     29787       260  POPC      H13B           34.9794858067      -14.1375081065      -19.2297626954  MEMB      260             0.0000000000
     29788       260  POPC      H13C           36.0453019917      -12.8226946139      -18.6612196770  MEMB      260             0.0000000000
     29789       260  POPC      C14            35.7807887840      -12.6235324105      -21.3441502299  MEMB      260             0.0000000000
     29790       260  POPC      H14A           36.7363321311      -12.3138177078      -20.9473965849  MEMB      260             0.0000000000
     29791       260  POPC      H14B           35.8395032115      -13.6504209930      -21.6734717903  MEMB      260             0.0000000000
     29792       260  POPC      H14C           35.5949428976      -11.9834714609      -22.1939638345  MEMB      260             0.0000000000
     29793       260  POPC      C15            34.5198937641      -10.8645813425      -19.8825092968  MEMB      260             0.0000000000
     29794       260  POPC      H15A           34.4701033464      -10.1941114370      -20.7277258246  MEMB      260             0.0000000000
     29795       260  POPC      H15B           35.4363433464      -10.5870036207      -19.3830388835  MEMB      260             0.0000000000
     29796       260  POPC      H15C           33.6757419286      -10.6808620768      -19.2343928069  MEMB      260             0.0000000000
     29797       260  POPC      C11            32.1517186155      -12.8059703125      -19.8983838649  MEMB      260             0.0000000000
     29798       260  POPC      H11A           31.3625352183      -13.0172099725      -20.6513037236  MEMB      260             0.0000000000
     29799       260  POPC      H11B           32.0648891731      -11.7775270409      -19.4871830227  MEMB      260             0.0000000000
     29800       260  POPC      P              31.1169054294      -13.7305818642      -17.5726855947  MEMB      260             0.0000000000
     29801       260  POPC      O13            31.4893583312      -14.8911817749      -16.7790835732  MEMB      260             0.0000000000
     29802       260  POPC      O14            29.6962598666      -13.6307376045      -17.9197304265  MEMB      260             0.0000000000
     29803       260  POPC      O12            32.1418028701      -13.6999716707      -18.7919993515  MEMB      260             0.0000000000
     29804       260  POPC      O11            31.4677459825      -12.5022478431      -16.7194172596  MEMB      260             0.0000000000
     29805       260  POPC      C1             32.7069168130      -11.8827003914      -16.5493584696  MEMB      260             0.0000000000
     29806       260  POPC      HA             32.5894448788      -10.8439956070      -16.9256742908  MEMB      260             0.0000000000
     29807       260  POPC      HB             33.4859725517      -12.3584311014      -17.1826620984  MEMB      260             0.0000000000
     29808       260  POPC      C2             33.2751153729      -11.9838896671      -15.1064188554  MEMB      260             0.0000000000
     29809       260  POPC      HS             34.3665769749      -11.7827491444      -15.0556705809  MEMB      260             0.0000000000
     29810       260  POPC      O21            32.8565012505      -13.1336043183      -14.3755513045  MEMB      260             0.0000000000
     29811       260  POPC      C21            33.7980993180      -14.0416061504      -14.2046917016  MEMB      260             0.0000000000
     29812       260  POPC      O22            34.9310397313      -13.9923617259      -14.6201990458  MEMB      260             0.0000000000
     29813       260  POPC      C22            33.0574717854      -15.3341439100      -13.9332966695  MEMB      260             0.0000000000
     29814       260  POPC      H2R            33.7606427325      -16.1292495644      -14.2614408324  MEMB      260             0.0000000000
     29815       260  POPC      H2S            32.0140746735      -15.4197855321      -14.3051957617  MEMB      260             0.0000000000
     29816       260  POPC      C3             32.7766014259      -10.7752610151      -14.2796086927  MEMB      260             0.0000000000
     29817       260  POPC      HX             31.6750242627      -10.6331228204      -14.3050158658  MEMB      260             0.0000000000
     29818       260  POPC      HY             33.1692487725       -9.8568828094      -14.7661584049  MEMB      260             0.0000000000
     29819       260  POPC      O31            33.2003826253      -10.9441840108      -12.8932032149  MEMB      260             0.0000000000
     29820       260  POPC      C31            34.4208756038      -10.4903091542      -12.5686769524  MEMB      260             0.0000000000
     29821       260  POPC      O32            35.2316442312       -9.9621371414      -13.2781391537  MEMB      260             0.0000000000
     29822       260  POPC      C32            34.6310574382      -10.7360786927      -11.0394179162  MEMB      260             0.0000000000
     29823       260  POPC      H2X            33.7632636434      -10.3057188430      -10.4953172057  MEMB      260             0.0000000000
     29824       260  POPC      H2Y            35.5117920757      -10.1157184236      -10.7677924934  MEMB      260             0.0000000000
     29825       260  POPC      C23            32.8700740939      -15.6220823445      -12.4286010975  MEMB      260             0.0000000000
     29826       260  POPC      H3R            32.6170434073      -14.6236447934      -12.0121649259  MEMB      260             0.0000000000
     29827       260  POPC      H3S            33.8688879570      -15.8612230258      -12.0049225831  MEMB      260             0.0000000000
     29828       260  POPC      C24            31.8566074275      -16.6959288521      -12.0871207574  MEMB      260             0.0000000000
     29829       260  POPC      H4R            32.1337725970      -17.5812629706      -12.6984173977  MEMB      260             0.0000000000
     29830       260  POPC      H4S            30.8092191201      -16.3480257004      -12.2146434379  MEMB      260             0.0000000000
     29831       260  POPC      C25            31.9325382430      -17.1861511673      -10.6279084420  MEMB      260             0.0000000000
     29832       260  POPC      H5R            32.9358440242      -17.6458379582      -10.4998962718  MEMB      260             0.0000000000
     29833       260  POPC      H5S            31.2362126622      -18.0395624286      -10.4825097585  MEMB      260             0.0000000000
     29834       260  POPC      C26            31.7328705552      -15.9556003686       -9.7135639591  MEMB      260             0.0000000000
     29835       260  POPC      H6R            32.5725482553      -15.2396489831       -9.8426999905  MEMB      260             0.0000000000
     29836       260  POPC      H6S            31.8923425755      -16.3315685737       -8.6803468315  MEMB      260             0.0000000000
     29837       260  POPC      C27            30.3582249671      -15.3527624882       -9.7118795332  MEMB      260             0.0000000000
     29838       260  POPC      H7R            29.6137918398      -16.0538416135       -9.2775653321  MEMB      260             0.0000000000
     29839       260  POPC      H7S            29.9607939980      -15.1390535082      -10.7271123591  MEMB      260             0.0000000000
     29840       260  POPC      C28            30.3275089907      -13.9234359310       -9.1661086243  MEMB      260             0.0000000000
     29841       260  POPC      H8R            30.9992327340      -13.3037611182       -9.7978612162  MEMB      260             0.0000000000
     29842       260  POPC      H8S            30.7767613261      -13.9140106457       -8.1500352400  MEMB      260             0.0000000000
     29843       260  POPC      C29            28.9756608684      -13.2125062131       -9.1862029714  MEMB      260             0.0000000000
     29844       260  POPC      H91            28.3574779163      -13.8197990612       -9.8637320688  MEMB      260             0.0000000000
     29845       260  POPC      C210           28.6129651245      -12.1715975446       -8.5508696108  MEMB      260             0.0000000000
     29846       260  POPC      H101           27.7129285243      -11.6578826301       -8.9196935974  MEMB      260             0.0000000000
     29847       260  POPC      C211           29.5637241185      -11.4505733457       -7.6098238581  MEMB      260             0.0000000000
     29848       260  POPC      H11R           29.2637396953      -10.3825419459       -7.5494997116  MEMB      260             0.0000000000
     29849       260  POPC      H11S           30.5992429266      -11.3815653258       -8.0063845635  MEMB      260             0.0000000000
     29850       260  POPC      C212           29.5100808755      -12.0373009185       -6.1619870895  MEMB      260             0.0000000000
     29851       260  POPC      H12R           30.3295572016      -12.7827880774       -6.0781510910  MEMB      260             0.0000000000
     29852       260  POPC      H12S           28.5050033459      -12.3530280833       -5.8092025696  MEMB      260             0.0000000000
     29853       260  POPC      C213           29.8816047017      -10.8278531818       -5.1760472196  MEMB      260             0.0000000000
     29854       260  POPC      H13R           28.9723513686      -10.2193365293       -4.9829471102  MEMB      260             0.0000000000
     29855       260  POPC      H13S           30.5293960861      -10.1558320153       -5.7786036136  MEMB      260             0.0000000000
     29856       260  POPC      C214           30.6557649129      -11.3061458117       -3.9428108552  MEMB      260             0.0000000000
     29857       260  POPC      H14R           31.5911574419      -11.8342652790       -4.2264501675  MEMB      260             0.0000000000
     29858       260  POPC      H14S           29.8492893357      -11.9244470582       -3.4937875888  MEMB      260             0.0000000000
     29859       260  POPC      C215           30.9848640171      -10.1633701557       -3.0566966103  MEMB      260             0.0000000000
     29860       260  POPC      H15R           30.0259601843       -9.7930392967       -2.6351766052  MEMB      260             0.0000000000
     29861       260  POPC      H15S           31.3852075323       -9.3222375640       -3.6621237064  MEMB      260             0.0000000000
     29862       260  POPC      C216           31.9215925772      -10.5308179049       -1.8608700092  MEMB      260             0.0000000000
     29863       260  POPC      H16R           32.9508217217      -10.8019794047       -2.1794277849  MEMB      260             0.0000000000
     29864       260  POPC      H16S           31.4973109762      -11.3523273984       -1.2448927467  MEMB      260             0.0000000000
     29865       260  POPC      C217           32.1119957193       -9.4256501388       -0.8609453080  MEMB      260             0.0000000000
     29866       260  POPC      H17R           31.2049763526       -9.1404770790       -0.2862168830  MEMB      260             0.0000000000
     29867       260  POPC      H17S           32.5253941954       -8.5283937187       -1.3692303756  MEMB      260             0.0000000000
     29868       260  POPC      C218           33.2503055937       -9.8051711507        0.1462061774  MEMB      260             0.0000000000
     29869       260  POPC      H18R           32.7955252534      -10.5674488765        0.8143585556  MEMB      260             0.0000000000
     29870       260  POPC      H18S           33.4677468476       -8.9247819734        0.7880426272  MEMB      260             0.0000000000
     29871       260  POPC      H18T           34.1931411877      -10.0305985339       -0.3965329269  MEMB      260             0.0000000000
     29872       260  POPC      C33            34.8575141803      -12.1780348716      -10.6676815748  MEMB      260             0.0000000000
     29873       260  POPC      H3X            35.7120825299      -12.5587167636      -11.2669439896  MEMB      260             0.0000000000
     29874       260  POPC      H3Y            33.9275656442      -12.7843376543      -10.7114277848  MEMB      260             0.0000000000
     29875       260  POPC      C34            35.5167528394      -12.3463981128       -9.2345506690  MEMB      260             0.0000000000
     29876       260  POPC      H4X            36.4924450916      -11.8150375179       -9.2333817625  MEMB      260             0.0000000000
     29877       260  POPC      H4Y            35.6614255746      -13.4433646925       -9.1342741669  MEMB      260             0.0000000000
     29878       260  POPC      C35            34.7086098864      -11.7919485612       -8.0491601464  MEMB      260             0.0000000000
     29879       260  POPC      H5X            33.6866413837      -12.2221302017       -8.1187667413  MEMB      260             0.0000000000
     29880       260  POPC      H5Y            34.4868291502      -10.7223495042       -8.2518727613  MEMB      260             0.0000000000
     29881       260  POPC      C36            35.3913610870      -11.8929278258       -6.6719512103  MEMB      260             0.0000000000
     29882       260  POPC      H6X            34.7975741230      -11.3473216637       -5.9077180137  MEMB      260             0.0000000000
     29883       260  POPC      H6Y            36.3846820570      -11.3984095361       -6.6163976147  MEMB      260             0.0000000000
     29884       260  POPC      C37            35.7281471908      -13.3059761156       -6.2118234890  MEMB      260             0.0000000000
     29885       260  POPC      H7X            36.6024076899      -13.6040356122       -6.8291972167  MEMB      260             0.0000000000
     29886       260  POPC      H7Y            34.9412528849      -14.0295144700       -6.5144961435  MEMB      260             0.0000000000
     29887       260  POPC      C38            36.2842770869      -13.3763710424       -4.7954517857  MEMB      260             0.0000000000
     29888       260  POPC      H8X            36.9506724019      -12.4895625591       -4.7337326962  MEMB      260             0.0000000000
     29889       260  POPC      H8Y            36.8275373118      -14.3361744668       -4.6614097871  MEMB      260             0.0000000000
     29890       260  POPC      C39            35.2735958605      -13.2557130628       -3.7220714732  MEMB      260             0.0000000000
     29891       260  POPC      H9X            34.4192903732      -13.9619354141       -3.7977879528  MEMB      260             0.0000000000
     29892       260  POPC      H9Y            34.7863266881      -12.2630975261       -3.8297931707  MEMB      260             0.0000000000
     29893       260  POPC      C310           35.8333771999      -13.5699297571       -2.3470417289  MEMB      260             0.0000000000
     29894       260  POPC      H10X           36.7465828236      -12.9390163244       -2.2988272279  MEMB      260             0.0000000000
     29895       260  POPC      H10Y           36.1974553749      -14.6195302293       -2.3366957056  MEMB      260             0.0000000000
     29896       260  POPC      C311           34.8425598101      -13.2095243478       -1.2366461310  MEMB      260             0.0000000000
     29897       260  POPC      H11X           34.3816647510      -12.2188253242       -1.4376740061  MEMB      260             0.0000000000
     29898       260  POPC      H11Y           35.3353250698      -13.0299213337       -0.2572347183  MEMB      260             0.0000000000
     29899       260  POPC      C312           33.5895670158      -14.1910361034       -1.1114808398  MEMB      260             0.0000000000
     29900       260  POPC      H12X           33.9450062804      -15.1647090220       -1.5114117330  MEMB      260             0.0000000000
     29901       260  POPC      H12Y           32.6671692280      -13.8551334803       -1.6317427860  MEMB      260             0.0000000000
     29902       260  POPC      C313           33.1802280176      -14.4733203444        0.3739328179  MEMB      260             0.0000000000
     29903       260  POPC      H13X           32.3012410064      -15.1335249554        0.2132055195  MEMB      260             0.0000000000
     29904       260  POPC      H13Y           32.8654889554      -13.5513783045        0.9080522483  MEMB      260             0.0000000000
     29905       260  POPC      C314           34.1723134811      -15.2777818781        1.2674243574  MEMB      260             0.0000000000
     29906       260  POPC      H14X           33.8712302200      -15.0853050275        2.3193840367  MEMB      260             0.0000000000
     29907       260  POPC      H14Y           35.2220024174      -15.0137377935        1.0169146150  MEMB      260             0.0000000000
     29908       260  POPC      C315           34.1616804661      -16.7510890631        1.0640827877  MEMB      260             0.0000000000
     29909       260  POPC      H15X           34.2660732842      -17.0391320136       -0.0038381325  MEMB      260             0.0000000000
     29910       260  POPC      H15Y           33.1888963467      -17.1999672511        1.3582260619  MEMB      260             0.0000000000
     29911       260  POPC      C316           35.1999385331      -17.3997566794        1.9879049188  MEMB      260             0.0000000000
     29912       260  POPC      H16X           36.2059560375      -17.2928868559        1.5287437254  MEMB      260             0.0000000000
     29913       260  POPC      H16Y           35.0277000914      -18.4832415064        2.1631638152  MEMB      260             0.0000000000
     29914       260  POPC      H16Z           35.2743278859      -16.8452250494        2.9477390133  MEMB      260             0.0000000000
     29915       261  POPC      N               3.9031638399       43.3536605430      -18.1877035187  MEMB      261             0.0000000000
     29916       261  POPC      C12             2.6725723092       42.4671699830      -18.0238758374  MEMB      261             0.0000000000
     29917       261  POPC      H12A            2.6073673144       42.0636902026      -17.0241996549  MEMB      261             0.0000000000
     29918       261  POPC      H12B            2.7571489590       41.5901694809      -18.6484692006  MEMB      261             0.0000000000
     29919       261  POPC      C13             4.2032227951       43.6715543372      -19.5976717803  MEMB      261             0.0000000000
     29920       261  POPC      H13A            5.0108673336       44.3740129846      -19.7414156556  MEMB      261             0.0000000000
     29921       261  POPC      H13B            4.4570871821       42.7912178261      -20.1694763933  MEMB      261             0.0000000000
     29922       261  POPC      H13C            3.3290857814       44.0864587913      -20.0773997847  MEMB      261             0.0000000000
     29923       261  POPC      C14             3.7025163229       44.6845419352      -17.5057458045  MEMB      261             0.0000000000
     29924       261  POPC      H14A            2.7219882062       45.1108765945      -17.6580721184  MEMB      261             0.0000000000
     29925       261  POPC      H14B            3.8215584329       44.5126766024      -16.4461744874  MEMB      261             0.0000000000
     29926       261  POPC      H14C            4.5311256534       45.3008644935      -17.8218997534  MEMB      261             0.0000000000
     29927       261  POPC      C15             5.0971165917       42.7020107743      -17.4630694959  MEMB      261             0.0000000000
     29928       261  POPC      H15A            6.0017569575       43.2821219557      -17.5702924817  MEMB      261             0.0000000000
     29929       261  POPC      H15B            5.1859739331       41.7529118608      -17.9707263390  MEMB      261             0.0000000000
     29930       261  POPC      H15C            4.9337973986       42.5745010559      -16.4031317608  MEMB      261             0.0000000000
     29931       261  POPC      C11             1.3329118257       43.1812333845      -18.3121080563  MEMB      261             0.0000000000
     29932       261  POPC      H11A            1.1113749836       43.9734238741      -17.5653306036  MEMB      261             0.0000000000
     29933       261  POPC      H11B            0.5202068796       42.4317581151      -18.2020250219  MEMB      261             0.0000000000
     29934       261  POPC      P               0.5904747200       44.9640883632      -20.0561048839  MEMB      261             0.0000000000
     29935       261  POPC      O13            -0.8734784169       44.7554284144      -19.9901594125  MEMB      261             0.0000000000
     29936       261  POPC      O14             1.1554424907       45.3812221560      -21.3698505269  MEMB      261             0.0000000000
     29937       261  POPC      O12             1.2742188754       43.6161111543      -19.6500719046  MEMB      261             0.0000000000
     29938       261  POPC      O11             0.9713425392       45.9611361564      -18.8436387717  MEMB      261             0.0000000000
     29939       261  POPC      C1              1.3911939438       47.3115798388      -19.2161428185  MEMB      261             0.0000000000
     29940       261  POPC      HA              0.8884098525       47.7630575473      -20.0980142093  MEMB      261             0.0000000000
     29941       261  POPC      HB              2.4551609750       47.4097894835      -19.5205275804  MEMB      261             0.0000000000
     29942       261  POPC      C2              0.9551554737       48.2937174698      -18.0316870429  MEMB      261             0.0000000000
     29943       261  POPC      HS              1.4812522135       49.2618004994      -18.1743697013  MEMB      261             0.0000000000
     29944       261  POPC      O21             1.4175651212       47.7802527161      -16.7424146355  MEMB      261             0.0000000000
     29945       261  POPC      C21             2.7783340168       47.7938761861      -16.5448399849  MEMB      261             0.0000000000
     29946       261  POPC      O22             3.6232991724       48.1667903379      -17.2872110881  MEMB      261             0.0000000000
     29947       261  POPC      C22             3.0274843573       47.2371252693      -15.1147183254  MEMB      261             0.0000000000
     29948       261  POPC      H2R             4.0951270708       47.1417239837      -14.8225567416  MEMB      261             0.0000000000
     29949       261  POPC      H2S             2.6754291934       46.1834927099      -15.0993395999  MEMB      261             0.0000000000
     29950       261  POPC      C3             -0.6287904262       48.5515445840      -17.9186313139  MEMB      261             0.0000000000
     29951       261  POPC      HX             -0.9734604480       49.0645381053      -18.8418655055  MEMB      261             0.0000000000
     29952       261  POPC      HY             -0.7966581084       49.1743995395      -17.0140910069  MEMB      261             0.0000000000
     29953       261  POPC      O31            -1.2741692894       47.2115849369      -17.7740050704  MEMB      261             0.0000000000
     29954       261  POPC      C31            -2.1354536502       47.0636335166      -16.7680941898  MEMB      261             0.0000000000
     29955       261  POPC      O32            -2.3385495837       47.8543528383      -15.8371727232  MEMB      261             0.0000000000
     29956       261  POPC      C32            -2.6969101724       45.6721434829      -16.9234401961  MEMB      261             0.0000000000
     29957       261  POPC      H2X            -2.0571280704       44.9954204286      -17.5292830024  MEMB      261             0.0000000000
     29958       261  POPC      H2Y            -3.5681567106       45.7841168576      -17.6036697619  MEMB      261             0.0000000000
     29959       261  POPC      C23             2.3003195533       48.1031078608      -14.0674948218  MEMB      261             0.0000000000
     29960       261  POPC      H3R             1.2631369068       47.7289771843      -13.9311153130  MEMB      261             0.0000000000
     29961       261  POPC      H3S             2.4004288719       49.1808291235      -14.3181265650  MEMB      261             0.0000000000
     29962       261  POPC      C24             2.8522689661       48.1351245406      -12.6069267767  MEMB      261             0.0000000000
     29963       261  POPC      H4R             3.8204558705       48.6797882278      -12.6235569173  MEMB      261             0.0000000000
     29964       261  POPC      H4S             3.0803804559       47.0841942143      -12.3279438336  MEMB      261             0.0000000000
     29965       261  POPC      C25             1.7909974496       48.7060329673      -11.6542671252  MEMB      261             0.0000000000
     29966       261  POPC      H5R             0.7714221920       48.3123130444      -11.8536964665  MEMB      261             0.0000000000
     29967       261  POPC      H5S             1.6326888940       49.8056619824      -11.6629300817  MEMB      261             0.0000000000
     29968       261  POPC      C26             2.1609402071       48.4004769543      -10.1498092970  MEMB      261             0.0000000000
     29969       261  POPC      H6R             3.2637389793       48.5241494274      -10.0963202177  MEMB      261             0.0000000000
     29970       261  POPC      H6S             2.0929540175       47.3007318260      -10.0074724493  MEMB      261             0.0000000000
     29971       261  POPC      C27             1.4327154320       49.2014678779       -9.0888626228  MEMB      261             0.0000000000
     29972       261  POPC      H7R             0.4351975897       48.7240644323       -8.9822557429  MEMB      261             0.0000000000
     29973       261  POPC      H7S             1.2185198513       50.2619969026       -9.3412908731  MEMB      261             0.0000000000
     29974       261  POPC      C28             2.1397810056       49.2670842739       -7.7796050067  MEMB      261             0.0000000000
     29975       261  POPC      H8R             2.1486922985       48.2773213320       -7.2750151569  MEMB      261             0.0000000000
     29976       261  POPC      H8S             1.6478594053       50.0437802095       -7.1558445077  MEMB      261             0.0000000000
     29977       261  POPC      C29             3.5892078496       49.8000046559       -7.8637995232  MEMB      261             0.0000000000
     29978       261  POPC      H91             3.6857185212       50.8540865083       -8.1631273531  MEMB      261             0.0000000000
     29979       261  POPC      C210            4.6805663594       49.0697215352       -7.6375427804  MEMB      261             0.0000000000
     29980       261  POPC      H101            5.6566736519       49.5520214817       -7.7943900777  MEMB      261             0.0000000000
     29981       261  POPC      C211            4.8149200332       47.6335347596       -7.2313906325  MEMB      261             0.0000000000
     29982       261  POPC      H11R            5.7647470420       47.1328157605       -7.5167517675  MEMB      261             0.0000000000
     29983       261  POPC      H11S            3.9886127917       47.0578552088       -7.7005711020  MEMB      261             0.0000000000
     29984       261  POPC      C212            4.6651871397       47.4853027944       -5.7414781604  MEMB      261             0.0000000000
     29985       261  POPC      H12R            4.5633798467       46.3893380504       -5.5904230233  MEMB      261             0.0000000000
     29986       261  POPC      H12S            3.7192184542       47.9257463136       -5.3600675474  MEMB      261             0.0000000000
     29987       261  POPC      C213            5.7941459581       48.1305958553       -4.9147379817  MEMB      261             0.0000000000
     29988       261  POPC      H13R            5.6450446806       49.2114475806       -4.7053355082  MEMB      261             0.0000000000
     29989       261  POPC      H13S            6.8322183715       48.0820339328       -5.3076357681  MEMB      261             0.0000000000
     29990       261  POPC      C214            5.8861468313       47.3197638225       -3.5635946963  MEMB      261             0.0000000000
     29991       261  POPC      H14R            6.7305030395       47.7185812586       -2.9616576172  MEMB      261             0.0000000000
     29992       261  POPC      H14S            6.0978474239       46.2688122536       -3.8551492637  MEMB      261             0.0000000000
     29993       261  POPC      C215            4.5512490793       47.3323179682       -2.7708200880  MEMB      261             0.0000000000
     29994       261  POPC      H15R            4.6516835095       46.6163500577       -1.9272416547  MEMB      261             0.0000000000
     29995       261  POPC      H15S            3.8327386414       46.7814548437       -3.4147247584  MEMB      261             0.0000000000
     29996       261  POPC      C216            4.1022611591       48.6697265529       -2.2147895374  MEMB      261             0.0000000000
     29997       261  POPC      H16R            3.6250261848       49.2175417012       -3.0553053317  MEMB      261             0.0000000000
     29998       261  POPC      H16S            5.0246063158       49.2396437248       -1.9723135284  MEMB      261             0.0000000000
     29999       261  POPC      C217            3.0182238859       48.6372269567       -1.0987064188  MEMB      261             0.0000000000
     30000       261  POPC      H17R            3.4084278472       48.0966682981       -0.2099680937  MEMB      261             0.0000000000
     30001       261  POPC      H17S            2.1080144039       48.1692312022       -1.5309328028  MEMB      261             0.0000000000
     30002       261  POPC      C218            2.6373647267       49.9736637810       -0.5204940841  MEMB      261             0.0000000000
     30003       261  POPC      H18R            3.4982732965       50.6383462614       -0.2938800293  MEMB      261             0.0000000000
     30004       261  POPC      H18S            2.1352906895       49.7857048869        0.4526009197  MEMB      261             0.0000000000
     30005       261  POPC      H18T            2.0085219323       50.4829365701       -1.2817562286  MEMB      261             0.0000000000
     30006       261  POPC      C33            -3.2378477110       45.0469957346      -15.6184312693  MEMB      261             0.0000000000
     30007       261  POPC      H3X            -3.9979692185       44.3389829554      -16.0124536533  MEMB      261             0.0000000000
     30008       261  POPC      H3Y            -3.5843793955       45.8457660528      -14.9283569093  MEMB      261             0.0000000000
     30009       261  POPC      C34            -2.1569265394       44.1950994268      -14.8524864252  MEMB      261             0.0000000000
     30010       261  POPC      H4X            -1.4127415883       43.7079884824      -15.5182435613  MEMB      261             0.0000000000
     30011       261  POPC      H4Y            -2.6489794873       43.4493823874      -14.1920993258  MEMB      261             0.0000000000
     30012       261  POPC      C35            -1.4090386689       45.0841645875      -13.8822561941  MEMB      261             0.0000000000
     30013       261  POPC      H5X            -2.1733427229       45.7545414746      -13.4341985857  MEMB      261             0.0000000000
     30014       261  POPC      H5Y            -0.7489612712       45.6752687814      -14.5524906674  MEMB      261             0.0000000000
     30015       261  POPC      C36            -0.5271177837       44.3443665814      -12.9715008660  MEMB      261             0.0000000000
     30016       261  POPC      H6X             0.2038365887       43.8349817975      -13.6352432157  MEMB      261             0.0000000000
     30017       261  POPC      H6Y            -1.1294389897       43.5687154134      -12.4519863361  MEMB      261             0.0000000000
     30018       261  POPC      C37             0.1790488959       45.2557455858      -11.8799795466  MEMB      261             0.0000000000
     30019       261  POPC      H7X            -0.6107027011       45.9451642685      -11.5121276363  MEMB      261             0.0000000000
     30020       261  POPC      H7Y             0.8388231325       45.9948609002      -12.3826997373  MEMB      261             0.0000000000
     30021       261  POPC      C38             1.0113976255       44.4671918745      -10.8449548545  MEMB      261             0.0000000000
     30022       261  POPC      H8X             1.7148192927       45.1568908000      -10.3313072054  MEMB      261             0.0000000000
     30023       261  POPC      H8Y             1.7049024237       43.7324875953      -11.3071042366  MEMB      261             0.0000000000
     30024       261  POPC      C39             0.2101445501       43.6848376743       -9.7527643338  MEMB      261             0.0000000000
     30025       261  POPC      H9X            -0.1740153458       42.6825917071      -10.0395489948  MEMB      261             0.0000000000
     30026       261  POPC      H9Y            -0.6425295106       44.1927117648       -9.2534330698  MEMB      261             0.0000000000
     30027       261  POPC      C310            1.2315706351       43.3462534047       -8.5689303664  MEMB      261             0.0000000000
     30028       261  POPC      H10X            1.7686358394       44.2571617780       -8.2281549043  MEMB      261             0.0000000000
     30029       261  POPC      H10Y            1.9775072393       42.6353599932       -8.9842983135  MEMB      261             0.0000000000
     30030       261  POPC      C311            0.4470987010       42.6243623531       -7.4765741766  MEMB      261             0.0000000000
     30031       261  POPC      H11X            1.1862376612       42.1671999645       -6.7844778545  MEMB      261             0.0000000000
     30032       261  POPC      H11Y           -0.0715185610       41.7511369461       -7.9269463934  MEMB      261             0.0000000000
     30033       261  POPC      C312           -0.5224501269       43.5488368364       -6.6363236346  MEMB      261             0.0000000000
     30034       261  POPC      H12X           -1.5919804892       43.2486396057       -6.6187973800  MEMB      261             0.0000000000
     30035       261  POPC      H12Y           -0.5270412614       44.5069348899       -7.1987714692  MEMB      261             0.0000000000
     30036       261  POPC      C313            0.1055602616       43.9960249950       -5.3396568165  MEMB      261             0.0000000000
     30037       261  POPC      H13X            1.1876768585       44.1874273770       -5.5030880475  MEMB      261             0.0000000000
     30038       261  POPC      H13Y           -0.0184995409       43.1454188292       -4.6358108271  MEMB      261             0.0000000000
     30039       261  POPC      C314           -0.4293484743       45.3475008841       -4.7280097371  MEMB      261             0.0000000000
     30040       261  POPC      H14X           -1.5152852650       45.2067714056       -4.5402398114  MEMB      261             0.0000000000
     30041       261  POPC      H14Y           -0.4175257875       46.1578357608       -5.4879690881  MEMB      261             0.0000000000
     30042       261  POPC      C315            0.2475629312       45.8488038437       -3.4463179252  MEMB      261             0.0000000000
     30043       261  POPC      H15X            1.3537261625       45.8186178356       -3.5453776967  MEMB      261             0.0000000000
     30044       261  POPC      H15Y           -0.1153707354       45.2645799001       -2.5738029552  MEMB      261             0.0000000000
     30045       261  POPC      C316           -0.3198768184       47.2395543899       -3.1665465856  MEMB      261             0.0000000000
     30046       261  POPC      H16X           -1.3534251336       47.3169930818       -3.5666742616  MEMB      261             0.0000000000
     30047       261  POPC      H16Y            0.0991124211       48.1352439388       -3.6730138783  MEMB      261             0.0000000000
     30048       261  POPC      H16Z           -0.3356217735       47.5051520618       -2.0878764215  MEMB      261             0.0000000000
     30049       262  POPC      N              10.0983748823      -41.5535802299      -18.3537763475  MEMB      262             0.0000000000
     30050       262  POPC      C12            11.2650899853      -40.7471958282      -17.7958009579  MEMB      262             0.0000000000
     30051       262  POPC      H12A           12.2009248900      -40.9892517087      -18.2774876268  MEMB      262             0.0000000000
     30052       262  POPC      H12B           11.4397683558      -41.0388936700      -16.7707157839  MEMB      262             0.0000000000
     30053       262  POPC      C13            10.0954275926      -41.5021897214      -19.8402413066  MEMB      262             0.0000000000
     30054       262  POPC      H13A            9.2139733952      -41.9845556917      -20.2361726231  MEMB      262             0.0000000000
     30055       262  POPC      H13B           10.2078773182      -40.4661209063      -20.1236426425  MEMB      262             0.0000000000
     30056       262  POPC      H13C           10.8944984591      -42.0684101631      -20.2955215840  MEMB      262             0.0000000000
     30057       262  POPC      C14            10.3488837706      -43.0144206967      -18.0025230423  MEMB      262             0.0000000000
     30058       262  POPC      H14A           10.6386225358      -43.1291431648      -16.9684582223  MEMB      262             0.0000000000
     30059       262  POPC      H14B            9.5392895164      -43.7005507736      -18.2029790449  MEMB      262             0.0000000000
     30060       262  POPC      H14C           11.2629146348      -43.1855637357      -18.5517567618  MEMB      262             0.0000000000
     30061       262  POPC      C15             8.8366243653      -41.0226900508      -17.7047890139  MEMB      262             0.0000000000
     30062       262  POPC      H15A            8.7387132987      -40.0376055868      -18.1365550385  MEMB      262             0.0000000000
     30063       262  POPC      H15B            8.9981905814      -40.9379204928      -16.6403124141  MEMB      262             0.0000000000
     30064       262  POPC      H15C            7.9592743577      -41.6310594894      -17.8677108279  MEMB      262             0.0000000000
     30065       262  POPC      C11            11.1829881469      -39.1513761286      -17.7210141097  MEMB      262             0.0000000000
     30066       262  POPC      H11A           12.1259145996      -38.8415059704      -17.2218234475  MEMB      262             0.0000000000
     30067       262  POPC      H11B           10.4100866066      -38.8791029302      -16.9708064087  MEMB      262             0.0000000000
     30068       262  POPC      P              12.0231240564      -38.0998623949      -19.9622324302  MEMB      262             0.0000000000
     30069       262  POPC      O13            12.1206796701      -36.6178314135      -19.8241142161  MEMB      262             0.0000000000
     30070       262  POPC      O14            11.7494168547      -38.6169111973      -21.3211616573  MEMB      262             0.0000000000
     30071       262  POPC      O12            10.8045348520      -38.5719189057      -18.9941543936  MEMB      262             0.0000000000
     30072       262  POPC      O11            13.3291777396      -38.7882500539      -19.4801925267  MEMB      262             0.0000000000
     30073       262  POPC      C1             14.4056289000      -38.9351879367      -20.4282579912  MEMB      262             0.0000000000
     30074       262  POPC      HA             14.6510157501      -37.9975513951      -20.9713453635  MEMB      262             0.0000000000
     30075       262  POPC      HB             14.1543724764      -39.6062561280      -21.2772919776  MEMB      262             0.0000000000
     30076       262  POPC      C2             15.5293806364      -39.5308957903      -19.6265269040  MEMB      262             0.0000000000
     30077       262  POPC      HS             16.3904168251      -39.7848395861      -20.2810879901  MEMB      262             0.0000000000
     30078       262  POPC      O21            14.8213581469      -40.7367735755      -19.1526636324  MEMB      262             0.0000000000
     30079       262  POPC      C21            15.6887495466      -41.6861734660      -18.6855977157  MEMB      262             0.0000000000
     30080       262  POPC      O22            16.8572718798      -41.7636050991      -18.9609761169  MEMB      262             0.0000000000
     30081       262  POPC      C22            14.9292860978      -42.4804843663      -17.7252223164  MEMB      262             0.0000000000
     30082       262  POPC      H2R            15.5095257621      -43.3840225762      -17.4401584858  MEMB      262             0.0000000000
     30083       262  POPC      H2S            14.0441314361      -42.9659560294      -18.1890536694  MEMB      262             0.0000000000
     30084       262  POPC      C3             16.1434431229      -38.6893849239      -18.5248969650  MEMB      262             0.0000000000
     30085       262  POPC      HX             16.5972283383      -37.7961134861      -19.0049653213  MEMB      262             0.0000000000
     30086       262  POPC      HY             16.9067550089      -39.2231409984      -17.9192727218  MEMB      262             0.0000000000
     30087       262  POPC      O31            15.1111515030      -38.3431023690      -17.5038548925  MEMB      262             0.0000000000
     30088       262  POPC      C31            15.4520073365      -37.1901742457      -16.8206297481  MEMB      262             0.0000000000
     30089       262  POPC      O32            16.5416644935      -36.6409893652      -16.9367685739  MEMB      262             0.0000000000
     30090       262  POPC      C32            14.1877136724      -36.7387578410      -16.0286596424  MEMB      262             0.0000000000
     30091       262  POPC      H2X            13.8232781260      -37.6230040244      -15.4633132182  MEMB      262             0.0000000000
     30092       262  POPC      H2Y            13.3867535546      -36.4743002595      -16.7517405372  MEMB      262             0.0000000000
     30093       262  POPC      C23            14.6188391309      -41.6980868605      -16.4037255422  MEMB      262             0.0000000000
     30094       262  POPC      H3R            14.2292233846      -40.6578537633      -16.4246049992  MEMB      262             0.0000000000
     30095       262  POPC      H3S            15.5185910880      -41.7063395182      -15.7520362527  MEMB      262             0.0000000000
     30096       262  POPC      C24            13.5548275992      -42.4394258499      -15.5505408892  MEMB      262             0.0000000000
     30097       262  POPC      H4R            13.9477518955      -43.4459614469      -15.2920498540  MEMB      262             0.0000000000
     30098       262  POPC      H4S            12.6777982299      -42.4557017881      -16.2323588423  MEMB      262             0.0000000000
     30099       262  POPC      C25            12.8550898135      -41.6530882852      -14.3912360807  MEMB      262             0.0000000000
     30100       262  POPC      H5R            11.9233714414      -42.1915610368      -14.1150672982  MEMB      262             0.0000000000
     30101       262  POPC      H5S            12.6951057100      -40.6449030068      -14.8297432798  MEMB      262             0.0000000000
     30102       262  POPC      C26            13.7512113541      -41.4909273387      -13.1378150536  MEMB      262             0.0000000000
     30103       262  POPC      H6R            14.6951974436      -40.9420944382      -13.3427389005  MEMB      262             0.0000000000
     30104       262  POPC      H6S            14.0363022164      -42.5237610720      -12.8440482930  MEMB      262             0.0000000000
     30105       262  POPC      C27            13.0848273684      -40.7874382690      -11.9400100598  MEMB      262             0.0000000000
     30106       262  POPC      H7R            12.0747807839      -41.1838362148      -11.7012729643  MEMB      262             0.0000000000
     30107       262  POPC      H7S            12.9384998935      -39.7348420758      -12.2639706941  MEMB      262             0.0000000000
     30108       262  POPC      C28            14.0034951787      -40.5109898847      -10.6888143156  MEMB      262             0.0000000000
     30109       262  POPC      H8R            13.5958732880      -39.7534025246       -9.9858013284  MEMB      262             0.0000000000
     30110       262  POPC      H8S            14.9219741583      -40.0446066338      -11.1049924693  MEMB      262             0.0000000000
     30111       262  POPC      C29            14.0979609372      -41.8894596331      -10.1560582201  MEMB      262             0.0000000000
     30112       262  POPC      H91            14.8520986540      -42.5123160119      -10.6593729133  MEMB      262             0.0000000000
     30113       262  POPC      C210           13.3893800769      -42.3893876614       -9.0552773658  MEMB      262             0.0000000000
     30114       262  POPC      H101           13.4113641065      -43.4675318500       -8.8382019175  MEMB      262             0.0000000000
     30115       262  POPC      C211           12.3960275835      -41.5758040052       -8.1808035410  MEMB      262             0.0000000000
     30116       262  POPC      H11R           11.3483414856      -41.9247223408       -8.3029973646  MEMB      262             0.0000000000
     30117       262  POPC      H11S           12.3167764971      -40.4786339517       -8.3365534029  MEMB      262             0.0000000000
     30118       262  POPC      C212           12.8311072819      -41.8780270171       -6.7266236265  MEMB      262             0.0000000000
     30119       262  POPC      H12R           12.8605616751      -42.9846317404       -6.6323967428  MEMB      262             0.0000000000
     30120       262  POPC      H12S           12.0180285395      -41.4763150556       -6.0848671276  MEMB      262             0.0000000000
     30121       262  POPC      C213           14.1673820561      -41.3488751261       -6.2987725246  MEMB      262             0.0000000000
     30122       262  POPC      H13R           14.1742310026      -40.2428322400       -6.4033825831  MEMB      262             0.0000000000
     30123       262  POPC      H13S           14.9497966592      -41.8793854234       -6.8824737111  MEMB      262             0.0000000000
     30124       262  POPC      C214           14.2515261117      -41.4774134826       -4.7655397390  MEMB      262             0.0000000000
     30125       262  POPC      H14R           13.9521267152      -42.4966007409       -4.4400584328  MEMB      262             0.0000000000
     30126       262  POPC      H14S           13.6801283253      -40.7302510867       -4.1742917453  MEMB      262             0.0000000000
     30127       262  POPC      C215           15.7834552313      -41.2161985666       -4.4186548179  MEMB      262             0.0000000000
     30128       262  POPC      H15R           16.1045661891      -40.3009091174       -4.9603683015  MEMB      262             0.0000000000
     30129       262  POPC      H15S           16.5024213290      -41.9593043354       -4.8251064278  MEMB      262             0.0000000000
     30130       262  POPC      C216           16.0999501207      -41.1015954352       -2.9264038750  MEMB      262             0.0000000000
     30131       262  POPC      H16R           15.6021094999      -42.0037545877       -2.5109710538  MEMB      262             0.0000000000
     30132       262  POPC      H16S           15.5092312341      -40.2653036254       -2.4951408981  MEMB      262             0.0000000000
     30133       262  POPC      C217           17.5369715992      -40.9063697874       -2.5258542149  MEMB      262             0.0000000000
     30134       262  POPC      H17R           18.0368270048      -41.8152593312       -2.9238307000  MEMB      262             0.0000000000
     30135       262  POPC      H17S           17.6404687685      -41.0135413389       -1.4248895032  MEMB      262             0.0000000000
     30136       262  POPC      C218           18.0726205039      -39.5722847721       -3.0372468647  MEMB      262             0.0000000000
     30137       262  POPC      H18R           17.4945157295      -38.7938972451       -2.4948177978  MEMB      262             0.0000000000
     30138       262  POPC      H18S           17.9167450086      -39.3498610749       -4.1145356036  MEMB      262             0.0000000000
     30139       262  POPC      H18T           19.1497914919      -39.5269270704       -2.7689816564  MEMB      262             0.0000000000
     30140       262  POPC      C33            14.6048166491      -35.5689258624      -15.0692534293  MEMB      262             0.0000000000
     30141       262  POPC      H3X            14.9974171891      -34.6842874502      -15.6147815698  MEMB      262             0.0000000000
     30142       262  POPC      H3Y            15.4460798993      -35.9545242155      -14.4545089528  MEMB      262             0.0000000000
     30143       262  POPC      C34            13.4343724813      -35.1329960803      -14.0599117273  MEMB      262             0.0000000000
     30144       262  POPC      H4X            12.4442556484      -35.1859072540      -14.5611008274  MEMB      262             0.0000000000
     30145       262  POPC      H4Y            13.5522558382      -34.0822828698      -13.7186994659  MEMB      262             0.0000000000
     30146       262  POPC      C35            13.3549295841      -35.9473163569      -12.7809076465  MEMB      262             0.0000000000
     30147       262  POPC      H5X            14.2320441821      -35.6018162504      -12.1930122402  MEMB      262             0.0000000000
     30148       262  POPC      H5Y            13.3459113539      -37.0466944496      -12.9409311869  MEMB      262             0.0000000000
     30149       262  POPC      C36            12.1209359957      -35.5156429531      -12.0569723260  MEMB      262             0.0000000000
     30150       262  POPC      H6X            11.2461890083      -35.7110509574      -12.7134437117  MEMB      262             0.0000000000
     30151       262  POPC      H6Y            12.0755726221      -34.4058192432      -12.0334244481  MEMB      262             0.0000000000
     30152       262  POPC      C37            11.8860019270      -36.0128392717      -10.6649715731  MEMB      262             0.0000000000
     30153       262  POPC      H7X            11.2680823066      -35.2729715178      -10.1126207486  MEMB      262             0.0000000000
     30154       262  POPC      H7Y            12.8716421950      -36.0462413133      -10.1533877039  MEMB      262             0.0000000000
     30155       262  POPC      C38            11.2227876041      -37.4126543400      -10.4317684203  MEMB      262             0.0000000000
     30156       262  POPC      H8X            11.8355591832      -38.3349020408      -10.5228250800  MEMB      262             0.0000000000
     30157       262  POPC      H8Y            10.4034321228      -37.5268498723      -11.1733453786  MEMB      262             0.0000000000
     30158       262  POPC      C39            10.4568490724      -37.3643697466       -9.1357583770  MEMB      262             0.0000000000
     30159       262  POPC      H9X             9.8207985733      -38.2643007003       -8.9947439557  MEMB      262             0.0000000000
     30160       262  POPC      H9Y             9.8148094489      -36.4642373456       -9.0268178084  MEMB      262             0.0000000000
     30161       262  POPC      C310           11.3857938253      -37.3024669611       -7.9084079610  MEMB      262             0.0000000000
     30162       262  POPC      H10X           12.0436303952      -36.4112556070       -7.8228847075  MEMB      262             0.0000000000
     30163       262  POPC      H10Y           12.0753756129      -38.1629594949       -8.0438721689  MEMB      262             0.0000000000
     30164       262  POPC      C311           10.5646036307      -37.4881321062       -6.6000132655  MEMB      262             0.0000000000
     30165       262  POPC      H11X            9.7600743826      -38.2307822476       -6.7884915996  MEMB      262             0.0000000000
     30166       262  POPC      H11Y           10.0517454380      -36.5038585248       -6.5499800069  MEMB      262             0.0000000000
     30167       262  POPC      C312           11.3483906638      -37.8884724316       -5.3608356691  MEMB      262             0.0000000000
     30168       262  POPC      H12X           12.1370026999      -37.1149549676       -5.2421650109  MEMB      262             0.0000000000
     30169       262  POPC      H12Y           11.8396506345      -38.8620456173       -5.5732972087  MEMB      262             0.0000000000
     30170       262  POPC      C313           10.5903701710      -38.0129247949       -4.0995823715  MEMB      262             0.0000000000
     30171       262  POPC      H13X            9.6720285894      -38.6357698431       -4.1546596787  MEMB      262             0.0000000000
     30172       262  POPC      H13Y           10.1487937350      -37.0263518112       -3.8426676349  MEMB      262             0.0000000000
     30173       262  POPC      C314           11.4886641890      -38.4426298752       -2.8221282687  MEMB      262             0.0000000000
     30174       262  POPC      H14X           12.2338089397      -37.6200859424       -2.7721076611  MEMB      262             0.0000000000
     30175       262  POPC      H14Y           11.9806567162      -39.4023252171       -3.0890526067  MEMB      262             0.0000000000
     30176       262  POPC      C315           10.6538692162      -38.6323215949       -1.5490810043  MEMB      262             0.0000000000
     30177       262  POPC      H15X            9.7327523416      -39.2162313038       -1.7610105395  MEMB      262             0.0000000000
     30178       262  POPC      H15Y           10.3990520797      -37.5871770011       -1.2714789540  MEMB      262             0.0000000000
     30179       262  POPC      C316           11.3508051907      -39.2889478218       -0.3920935552  MEMB      262             0.0000000000
     30180       262  POPC      H16X           12.2370857618      -38.6839187250       -0.1043977164  MEMB      262             0.0000000000
     30181       262  POPC      H16Y           11.7091708841      -40.2815024168       -0.7395560551  MEMB      262             0.0000000000
     30182       262  POPC      H16Z           10.6331730770      -39.5768813392        0.4056646371  MEMB      262             0.0000000000
     30183       263  POPC      N             -37.9358750428        7.6388833429      -17.6626809531  MEMB      263             0.0000000000
     30184       263  POPC      C12           -37.6451918741        7.8308658051      -19.1239464792  MEMB      263             0.0000000000
     30185       263  POPC      H12A          -37.1931545931        6.9629769869      -19.5809272591  MEMB      263             0.0000000000
     30186       263  POPC      H12B          -36.9597558318        8.6536223272      -19.2641225044  MEMB      263             0.0000000000
     30187       263  POPC      C13           -38.6135112295        6.3235200172      -17.3309770851  MEMB      263             0.0000000000
     30188       263  POPC      H13A          -37.9622694971        5.4711575460      -17.4565260073  MEMB      263             0.0000000000
     30189       263  POPC      H13B          -38.9172461095        6.3538373936      -16.2950107723  MEMB      263             0.0000000000
     30190       263  POPC      H13C          -39.4867037297        6.2646072236      -17.9637994995  MEMB      263             0.0000000000
     30191       263  POPC      C14           -36.6533997323        7.6059866992      -16.8945646026  MEMB      263             0.0000000000
     30192       263  POPC      H14A          -36.9147842349        7.4085272398      -15.8654446076  MEMB      263             0.0000000000
     30193       263  POPC      H14B          -36.1362513996        6.7393235269      -17.2790804516  MEMB      263             0.0000000000
     30194       263  POPC      H14C          -36.2047175477        8.5728990853      -17.0682445598  MEMB      263             0.0000000000
     30195       263  POPC      C15           -38.7018927696        8.7929226307      -17.1019728527  MEMB      263             0.0000000000
     30196       263  POPC      H15A          -38.1653245152        9.7298904831      -17.1261770564  MEMB      263             0.0000000000
     30197       263  POPC      H15B          -38.9509434857        8.4794247028      -16.0989310169  MEMB      263             0.0000000000
     30198       263  POPC      H15C          -39.5642340963        8.7548745410      -17.7510643388  MEMB      263             0.0000000000
     30199       263  POPC      C11           -38.8125678012        8.0880173539      -20.1034294653  MEMB      263             0.0000000000
     30200       263  POPC      H11A          -39.5615727697        7.3418204867      -19.7621044054  MEMB      263             0.0000000000
     30201       263  POPC      H11B          -38.7067760704        7.9077787814      -21.1945954628  MEMB      263             0.0000000000
     30202       263  POPC      P             -40.9264964789        9.6829485904      -20.2068764461  MEMB      263             0.0000000000
     30203       263  POPC      O13           -41.1273281284        9.4737302385      -21.6832429977  MEMB      263             0.0000000000
     30204       263  POPC      O14           -41.3364919343       10.9422558975      -19.5502451310  MEMB      263             0.0000000000
     30205       263  POPC      O12           -39.3739770345        9.3540329223      -19.9219901024  MEMB      263             0.0000000000
     30206       263  POPC      O11           -41.6558336219        8.5586853801      -19.4200738834  MEMB      263             0.0000000000
     30207       263  POPC      C1            -42.9759872918        8.8190944630      -18.8365051572  MEMB      263             0.0000000000
     30208       263  POPC      HA            -43.7151775311        8.0870939563      -19.2264976720  MEMB      263             0.0000000000
     30209       263  POPC      HB            -43.4041639909        9.8299186044      -19.0074440724  MEMB      263             0.0000000000
     30210       263  POPC      C2            -43.0398549691        8.7392405522      -17.2887648495  MEMB      263             0.0000000000
     30211       263  POPC      HS            -44.0483705507        9.0860231651      -16.9773830106  MEMB      263             0.0000000000
     30212       263  POPC      O21           -42.0862265125        9.6193280309      -16.7732905999  MEMB      263             0.0000000000
     30213       263  POPC      C21           -42.3999644768       10.8931233962      -16.5525224425  MEMB      263             0.0000000000
     30214       263  POPC      O22           -43.5096658678       11.3470894047      -16.6958400498  MEMB      263             0.0000000000
     30215       263  POPC      C22           -41.1836798312       11.6067272421      -15.8777250011  MEMB      263             0.0000000000
     30216       263  POPC      H2R           -41.4505148390       12.6815551751      -15.7890420877  MEMB      263             0.0000000000
     30217       263  POPC      H2S           -40.4245324669       11.5915164083      -16.6887645238  MEMB      263             0.0000000000
     30218       263  POPC      C3            -42.8294520057        7.3311397347      -16.6208842019  MEMB      263             0.0000000000
     30219       263  POPC      HX            -41.7903459230        7.0742919841      -16.9185569522  MEMB      263             0.0000000000
     30220       263  POPC      HY            -43.4723483653        6.5195043745      -17.0236908200  MEMB      263             0.0000000000
     30221       263  POPC      O31           -42.8827699237        7.4864489086      -15.1436075131  MEMB      263             0.0000000000
     30222       263  POPC      C31           -41.7712581553        7.0344497898      -14.4775337098  MEMB      263             0.0000000000
     30223       263  POPC      O32           -40.6975021905        6.8220343346      -14.9794965570  MEMB      263             0.0000000000
     30224       263  POPC      C32           -42.1513668051        6.7010521004      -12.9737627067  MEMB      263             0.0000000000
     30225       263  POPC      H2X           -42.9660949296        5.9491428322      -12.9018494380  MEMB      263             0.0000000000
     30226       263  POPC      H2Y           -42.5068479881        7.6787695442      -12.5838617695  MEMB      263             0.0000000000
     30227       263  POPC      C23           -40.8359229477       10.9131166391      -14.5191705250  MEMB      263             0.0000000000
     30228       263  POPC      H3R           -40.7068136663        9.8427410978      -14.7874012909  MEMB      263             0.0000000000
     30229       263  POPC      H3S           -41.7381727371       11.0767750143      -13.8918890147  MEMB      263             0.0000000000
     30230       263  POPC      C24           -39.5669393768       11.4390479210      -13.8167350224  MEMB      263             0.0000000000
     30231       263  POPC      H4R           -39.8830976598       12.1149103365      -12.9935854244  MEMB      263             0.0000000000
     30232       263  POPC      H4S           -38.9571037160       11.9989752188      -14.5576145817  MEMB      263             0.0000000000
     30233       263  POPC      C25           -38.7144427887       10.2913239210      -13.0551913298  MEMB      263             0.0000000000
     30234       263  POPC      H5R           -37.8470409477       10.9399826604      -12.8078522854  MEMB      263             0.0000000000
     30235       263  POPC      H5S           -38.3949754730        9.5641182562      -13.8320011518  MEMB      263             0.0000000000
     30236       263  POPC      C26           -39.4102839193        9.6368885239      -11.8576021190  MEMB      263             0.0000000000
     30237       263  POPC      H6R           -38.8535346329        8.7590520797      -11.4654867279  MEMB      263             0.0000000000
     30238       263  POPC      H6S           -40.3875651782        9.2026984494      -12.1588019687  MEMB      263             0.0000000000
     30239       263  POPC      C27           -39.5554464507       10.6019812395      -10.6754673431  MEMB      263             0.0000000000
     30240       263  POPC      H7R           -40.3564774832       11.2980481800      -11.0043458185  MEMB      263             0.0000000000
     30241       263  POPC      H7S           -38.6705696670       11.2696634983      -10.6012097462  MEMB      263             0.0000000000
     30242       263  POPC      C28           -39.9695468072        9.9593855807       -9.4082502840  MEMB      263             0.0000000000
     30243       263  POPC      H8R           -40.7561186635        9.2124728186       -9.6485565649  MEMB      263             0.0000000000
     30244       263  POPC      H8S           -40.5584024182       10.7301734416       -8.8665341593  MEMB      263             0.0000000000
     30245       263  POPC      C29           -38.9762479100        9.1628960198       -8.6140297875  MEMB      263             0.0000000000
     30246       263  POPC      H91           -38.6399012327        8.1968310663       -9.0184918026  MEMB      263             0.0000000000
     30247       263  POPC      C210          -38.3525008165        9.5332697085       -7.4971330866  MEMB      263             0.0000000000
     30248       263  POPC      H101          -37.7004231880        8.7854941358       -7.0221322166  MEMB      263             0.0000000000
     30249       263  POPC      C211          -38.4242767305       10.8979943753       -6.8569483870  MEMB      263             0.0000000000
     30250       263  POPC      H11R          -38.4248251845       11.6356756085       -7.6876989546  MEMB      263             0.0000000000
     30251       263  POPC      H11S          -37.4579975347       11.0741233445       -6.3377141153  MEMB      263             0.0000000000
     30252       263  POPC      C212          -39.6202886062       11.0816021381       -5.8180154008  MEMB      263             0.0000000000
     30253       263  POPC      H12R          -40.5670853708       10.8214336331       -6.3378314205  MEMB      263             0.0000000000
     30254       263  POPC      H12S          -39.5682717506       12.1484211923       -5.5122176063  MEMB      263             0.0000000000
     30255       263  POPC      C213          -39.4667390338       10.2261856850       -4.4963422983  MEMB      263             0.0000000000
     30256       263  POPC      H13R          -39.1002610465        9.2307723469       -4.8267470962  MEMB      263             0.0000000000
     30257       263  POPC      H13S          -40.4565672573       10.1186298426       -4.0033994732  MEMB      263             0.0000000000
     30258       263  POPC      C214          -38.4817173902       10.8338610190       -3.4957146741  MEMB      263             0.0000000000
     30259       263  POPC      H14R          -38.8317050230       11.8742186802       -3.3240007547  MEMB      263             0.0000000000
     30260       263  POPC      H14S          -37.4524367869       10.7740595026       -3.9096309264  MEMB      263             0.0000000000
     30261       263  POPC      C215          -38.4276378785       10.0682407263       -2.1395851831  MEMB      263             0.0000000000
     30262       263  POPC      H15R          -37.9353889973        9.0727958361       -2.1727754688  MEMB      263             0.0000000000
     30263       263  POPC      H15S          -39.4931788948        9.8258732508       -1.9390823727  MEMB      263             0.0000000000
     30264       263  POPC      C216          -37.8583369598       10.7571877991       -0.9115230281  MEMB      263             0.0000000000
     30265       263  POPC      H16R          -36.8259575009       11.1333762298       -1.0758272211  MEMB      263             0.0000000000
     30266       263  POPC      H16S          -37.6760257502        9.9773683316       -0.1414802362  MEMB      263             0.0000000000
     30267       263  POPC      C217          -38.6086598080       11.9678067785       -0.2361505664  MEMB      263             0.0000000000
     30268       263  POPC      H17R          -39.4249218020       11.4435190776        0.3052909979  MEMB      263             0.0000000000
     30269       263  POPC      H17S          -39.1557953060       12.6259876863       -0.9445031346  MEMB      263             0.0000000000
     30270       263  POPC      C218          -37.8243875017       12.8133386122        0.7256498685  MEMB      263             0.0000000000
     30271       263  POPC      H18R          -38.4631150300       13.4124118046        1.4093598550  MEMB      263             0.0000000000
     30272       263  POPC      H18S          -37.0641273197       13.3965594670        0.1633509001  MEMB      263             0.0000000000
     30273       263  POPC      H18T          -37.3031562831       12.1420685791        1.4412147449  MEMB      263             0.0000000000
     30274       263  POPC      C33           -40.9322882059        6.2982629574      -12.1488732541  MEMB      263             0.0000000000
     30275       263  POPC      H3X           -40.1477342554        7.0477362847      -12.3878002373  MEMB      263             0.0000000000
     30276       263  POPC      H3Y           -40.5479929894        5.3169511687      -12.5005340975  MEMB      263             0.0000000000
     30277       263  POPC      C34           -41.1137162196        6.2592485896      -10.6701150961  MEMB      263             0.0000000000
     30278       263  POPC      H4X           -41.6174866462        7.1898047445      -10.3315870854  MEMB      263             0.0000000000
     30279       263  POPC      H4Y           -40.0869169691        6.1502086602      -10.2600972449  MEMB      263             0.0000000000
     30280       263  POPC      C35           -41.9386244641        5.0801368605      -10.1191020385  MEMB      263             0.0000000000
     30281       263  POPC      H5X           -42.0687221101        4.2462160308      -10.8415782700  MEMB      263             0.0000000000
     30282       263  POPC      H5Y           -42.9228837786        5.4781413810       -9.7917686605  MEMB      263             0.0000000000
     30283       263  POPC      C36           -41.2484656758        4.5372656221       -8.8045750140  MEMB      263             0.0000000000
     30284       263  POPC      H6X           -40.1782709459        4.3472815804       -9.0345978429  MEMB      263             0.0000000000
     30285       263  POPC      H6Y           -41.8313598856        3.6962233338       -8.3719046958  MEMB      263             0.0000000000
     30286       263  POPC      C37           -41.1873265322        5.6501244414       -7.7538702655  MEMB      263             0.0000000000
     30287       263  POPC      H7X           -42.1323761140        5.5216738842       -7.1840435925  MEMB      263             0.0000000000
     30288       263  POPC      H7Y           -41.1814494582        6.6693846832       -8.1959051614  MEMB      263             0.0000000000
     30289       263  POPC      C38           -39.9651703037        5.4088440328       -6.9054802475  MEMB      263             0.0000000000
     30290       263  POPC      H8X           -39.0872005740        5.6049530538       -7.5574240632  MEMB      263             0.0000000000
     30291       263  POPC      H8Y           -39.9287003402        4.3810492429       -6.4852072404  MEMB      263             0.0000000000
     30292       263  POPC      C39           -39.7846013888        6.2403672645       -5.6305087391  MEMB      263             0.0000000000
     30293       263  POPC      H9X           -40.1374087490        7.2908761924       -5.7097486356  MEMB      263             0.0000000000
     30294       263  POPC      H9Y           -38.7372721825        6.1399627151       -5.2736589675  MEMB      263             0.0000000000
     30295       263  POPC      C310          -40.5290726755        5.6704731601       -4.3368384025  MEMB      263             0.0000000000
     30296       263  POPC      H10X          -40.1233631104        4.7018085439       -3.9743340715  MEMB      263             0.0000000000
     30297       263  POPC      H10Y          -41.6173661630        5.5678296636       -4.5353399178  MEMB      263             0.0000000000
     30298       263  POPC      C311          -40.3427446456        6.5249119998       -3.0930365175  MEMB      263             0.0000000000
     30299       263  POPC      H11X          -40.5046376778        7.6068829906       -3.2865575411  MEMB      263             0.0000000000
     30300       263  POPC      H11Y          -39.3441435170        6.4981230685       -2.6068277805  MEMB      263             0.0000000000
     30301       263  POPC      C312          -41.3546414046        6.1464302441       -2.0366904561  MEMB      263             0.0000000000
     30302       263  POPC      H12X          -40.9266730478        5.1893030629       -1.6691694450  MEMB      263             0.0000000000
     30303       263  POPC      H12Y          -42.3198165956        5.9069988482       -2.5320988168  MEMB      263             0.0000000000
     30304       263  POPC      C313          -41.7418167024        7.1314565219       -0.9234870133  MEMB      263             0.0000000000
     30305       263  POPC      H13X          -40.7789491084        7.4916127262       -0.5021863554  MEMB      263             0.0000000000
     30306       263  POPC      H13Y          -42.2588414775        6.6127221347       -0.0880702655  MEMB      263             0.0000000000
     30307       263  POPC      C314          -42.4415801184        8.4228836269       -1.4669126875  MEMB      263             0.0000000000
     30308       263  POPC      H14X          -43.4600458918        8.0549555718       -1.7152634152  MEMB      263             0.0000000000
     30309       263  POPC      H14Y          -41.8886764981        8.7757668097       -2.3636245514  MEMB      263             0.0000000000
     30310       263  POPC      C315          -42.5278458160        9.5456879204       -0.4365226581  MEMB      263             0.0000000000
     30311       263  POPC      H15X          -41.4945018025        9.8603847405       -0.1767419601  MEMB      263             0.0000000000
     30312       263  POPC      H15Y          -42.9389579757        8.9764445071        0.4244475407  MEMB      263             0.0000000000
     30313       263  POPC      C316          -43.1545748548       10.8851751452       -0.8777959065  MEMB      263             0.0000000000
     30314       263  POPC      H16X          -43.0673935923       11.6593409469       -0.0857172436  MEMB      263             0.0000000000
     30315       263  POPC      H16Y          -44.2329686605       10.8757484323       -1.1448146139  MEMB      263             0.0000000000
     30316       263  POPC      H16Z          -42.7430736409       11.2991951428       -1.8230873434  MEMB      263             0.0000000000
     30317       264  POPC      N              34.7053247141       -5.6460342217      -18.4416344929  MEMB      264             0.0000000000
     30318       264  POPC      C12            36.0224669724       -5.2145827043      -17.8798122244  MEMB      264             0.0000000000
     30319       264  POPC      H12A           36.4727420556       -6.1023594750      -17.4608793759  MEMB      264             0.0000000000
     30320       264  POPC      H12B           35.8203383518       -4.5371450241      -17.0633427823  MEMB      264             0.0000000000
     30321       264  POPC      C13            34.9427133862       -6.9503120224      -19.1538642403  MEMB      264             0.0000000000
     30322       264  POPC      H13A           35.0451539739       -7.6856888458      -18.3695639759  MEMB      264             0.0000000000
     30323       264  POPC      H13B           34.0124813098       -7.2804702687      -19.5921151869  MEMB      264             0.0000000000
     30324       264  POPC      H13C           35.8334781498       -6.9981032854      -19.7626779601  MEMB      264             0.0000000000
     30325       264  POPC      C14            33.7468017249       -6.0016635310      -17.2600728863  MEMB      264             0.0000000000
     30326       264  POPC      H14A           32.8573217616       -6.3059143583      -17.7917275494  MEMB      264             0.0000000000
     30327       264  POPC      H14B           34.0755062485       -6.8708989372      -16.7098154356  MEMB      264             0.0000000000
     30328       264  POPC      H14C           33.5447620515       -5.1381446814      -16.6437003176  MEMB      264             0.0000000000
     30329       264  POPC      C15            34.1239888778       -4.6200247261      -19.3954851192  MEMB      264             0.0000000000
     30330       264  POPC      H15A           34.1370283489       -3.6302360584      -18.9635727874  MEMB      264             0.0000000000
     30331       264  POPC      H15B           33.0995608550       -4.9050143662      -19.5845040773  MEMB      264             0.0000000000
     30332       264  POPC      H15C           34.8073907411       -4.5214723257      -20.2259364626  MEMB      264             0.0000000000
     30333       264  POPC      C11            37.0462463052       -4.3981519560      -18.6371514251  MEMB      264             0.0000000000
     30334       264  POPC      H11A           37.9382385636       -4.2629358829      -17.9887784805  MEMB      264             0.0000000000
     30335       264  POPC      H11B           36.7184862978       -3.3559346737      -18.8388378064  MEMB      264             0.0000000000
     30336       264  POPC      P              38.5298793028       -6.2331661952      -19.7379955953  MEMB      264             0.0000000000
     30337       264  POPC      O13            39.8806901516       -5.7046348341      -19.8577119240  MEMB      264             0.0000000000
     30338       264  POPC      O14            38.1338506124       -7.3460955266      -20.5690981548  MEMB      264             0.0000000000
     30339       264  POPC      O12            37.4755855793       -4.9664366587      -19.8524462629  MEMB      264             0.0000000000
     30340       264  POPC      O11            38.3133399953       -6.7080830834      -18.2147276753  MEMB      264             0.0000000000
     30341       264  POPC      C1             39.1829397629       -7.6197953338      -17.5661645450  MEMB      264             0.0000000000
     30342       264  POPC      HA             40.1567816672       -7.7704736884      -18.0792425554  MEMB      264             0.0000000000
     30343       264  POPC      HB             38.7119015092       -8.6132966309      -17.7255360421  MEMB      264             0.0000000000
     30344       264  POPC      C2             39.4269065195       -7.1127556526      -16.1070769975  MEMB      264             0.0000000000
     30345       264  POPC      HS             39.7279783637       -7.9437390694      -15.4339176435  MEMB      264             0.0000000000
     30346       264  POPC      O21            38.2673463174       -6.5706872599      -15.4735574204  MEMB      264             0.0000000000
     30347       264  POPC      C21            37.2534697949       -7.3851310623      -15.3155419108  MEMB      264             0.0000000000
     30348       264  POPC      O22            37.1074761607       -8.5227997845      -15.6836739402  MEMB      264             0.0000000000
     30349       264  POPC      C22            36.2551003613       -6.6314523760      -14.3863985306  MEMB      264             0.0000000000
     30350       264  POPC      H2R            35.3956490840       -6.2306042268      -14.9651776128  MEMB      264             0.0000000000
     30351       264  POPC      H2S            36.8932987660       -5.9039138509      -13.8407694732  MEMB      264             0.0000000000
     30352       264  POPC      C3             40.5665116594       -6.0793571496      -15.9303545954  MEMB      264             0.0000000000
     30353       264  POPC      HX             40.5126547606       -5.4607660320      -16.8516393275  MEMB      264             0.0000000000
     30354       264  POPC      HY             41.4984067457       -6.6830504762      -15.8923160259  MEMB      264             0.0000000000
     30355       264  POPC      O31            40.5197496939       -5.2900349626      -14.6974117615  MEMB      264             0.0000000000
     30356       264  POPC      C31            41.0972969939       -5.6618991585      -13.5366784839  MEMB      264             0.0000000000
     30357       264  POPC      O32            41.5324136648       -6.7397726727      -13.3349636661  MEMB      264             0.0000000000
     30358       264  POPC      C32            40.7878690641       -4.5580287060      -12.4788601023  MEMB      264             0.0000000000
     30359       264  POPC      H2X            41.2606275846       -3.5823507061      -12.7214965421  MEMB      264             0.0000000000
     30360       264  POPC      H2Y            41.2085957740       -4.8163586092      -11.4835836237  MEMB      264             0.0000000000
     30361       264  POPC      C23            35.5874109218       -7.6510852573      -13.4177735830  MEMB      264             0.0000000000
     30362       264  POPC      H3R            36.4390436757       -8.2595339562      -13.0451706081  MEMB      264             0.0000000000
     30363       264  POPC      H3S            34.9424317225       -8.3163036789      -14.0308046507  MEMB      264             0.0000000000
     30364       264  POPC      C24            34.8485867944       -6.9603190059      -12.2354639148  MEMB      264             0.0000000000
     30365       264  POPC      H4R            33.9318328863       -6.5017838143      -12.6639838927  MEMB      264             0.0000000000
     30366       264  POPC      H4S            35.4747513514       -6.1180877394      -11.8709297028  MEMB      264             0.0000000000
     30367       264  POPC      C25            34.6025171875       -7.9577069282      -11.0459382720  MEMB      264             0.0000000000
     30368       264  POPC      H5R            34.0619143212       -8.9079237139      -11.2438201253  MEMB      264             0.0000000000
     30369       264  POPC      H5S            33.9619703568       -7.3494123152      -10.3721441433  MEMB      264             0.0000000000
     30370       264  POPC      C26            35.9120760979       -8.2059642154      -10.1664238766  MEMB      264             0.0000000000
     30371       264  POPC      H6R            36.5218610142       -8.9818536209      -10.6767951795  MEMB      264             0.0000000000
     30372       264  POPC      H6S            35.5040605560       -8.6065347522       -9.2138550073  MEMB      264             0.0000000000
     30373       264  POPC      C27            36.6425277541       -6.9676564092       -9.6769207807  MEMB      264             0.0000000000
     30374       264  POPC      H7R            35.9123319824       -6.3352582539       -9.1280961760  MEMB      264             0.0000000000
     30375       264  POPC      H7S            36.9353074323       -6.3761162913      -10.5706104809  MEMB      264             0.0000000000
     30376       264  POPC      C28            37.8163528239       -7.2207873483       -8.7821111933  MEMB      264             0.0000000000
     30377       264  POPC      H8R            37.4463115368       -7.7445753524       -7.8748974325  MEMB      264             0.0000000000
     30378       264  POPC      H8S            38.1623986800       -6.2742950113       -8.3144295998  MEMB      264             0.0000000000
     30379       264  POPC      C29            38.9678353816       -7.9126374363       -9.4501334841  MEMB      264             0.0000000000
     30380       264  POPC      H91            39.3639011136       -7.3689307351      -10.3204869869  MEMB      264             0.0000000000
     30381       264  POPC      C210           39.6362441251       -8.9097299387       -8.8841727052  MEMB      264             0.0000000000
     30382       264  POPC      H101           40.3909070081       -9.4913216060       -9.4339325368  MEMB      264             0.0000000000
     30383       264  POPC      C211           39.4604520447       -9.5736411583       -7.5271866779  MEMB      264             0.0000000000
     30384       264  POPC      H11R           39.1787859512      -10.6380626452       -7.6754840211  MEMB      264             0.0000000000
     30385       264  POPC      H11S           38.5278652382       -9.3104463352       -6.9837430053  MEMB      264             0.0000000000
     30386       264  POPC      C212           40.7091815887       -9.4493915647       -6.6688985248  MEMB      264             0.0000000000
     30387       264  POPC      H12R           41.6303514001       -9.7961037223       -7.1842215376  MEMB      264             0.0000000000
     30388       264  POPC      H12S           40.5297229955      -10.1449466564       -5.8213618401  MEMB      264             0.0000000000
     30389       264  POPC      C213           40.9752393723       -8.0614704745       -6.2063556318  MEMB      264             0.0000000000
     30390       264  POPC      H13R           40.9367516943       -7.4497650182       -7.1329924297  MEMB      264             0.0000000000
     30391       264  POPC      H13S           42.0167473688       -8.0160623852       -5.8222721865  MEMB      264             0.0000000000
     30392       264  POPC      C214           40.0598720642       -7.5281488390       -5.1332129100  MEMB      264             0.0000000000
     30393       264  POPC      H14R           39.0076949464       -7.3560193536       -5.4456472488  MEMB      264             0.0000000000
     30394       264  POPC      H14S           40.3581825892       -6.5445608409       -4.7114470624  MEMB      264             0.0000000000
     30395       264  POPC      C215           39.8016289777       -8.3708644799       -3.8727648829  MEMB      264             0.0000000000
     30396       264  POPC      H15R           40.6986486142       -8.7752937670       -3.3569035476  MEMB      264             0.0000000000
     30397       264  POPC      H15S           39.2484683108       -9.3126492002       -4.0761761881  MEMB      264             0.0000000000
     30398       264  POPC      C216           38.9230029983       -7.5327806021       -2.9213341920  MEMB      264             0.0000000000
     30399       264  POPC      H16R           38.0295020741       -7.1405377207       -3.4524866858  MEMB      264             0.0000000000
     30400       264  POPC      H16S           39.5972738421       -6.7483587501       -2.5159178272  MEMB      264             0.0000000000
     30401       264  POPC      C217           38.4209218974       -8.4004060952       -1.7527546564  MEMB      264             0.0000000000
     30402       264  POPC      H17R           37.4715981267       -8.9427593395       -1.9501321948  MEMB      264             0.0000000000
     30403       264  POPC      H17S           38.2869044102       -7.6611483980       -0.9343053140  MEMB      264             0.0000000000
     30404       264  POPC      C218           39.4833344765       -9.3641356935       -1.1128375643  MEMB      264             0.0000000000
     30405       264  POPC      H18R           40.4925505384       -8.9603320791       -0.8831723688  MEMB      264             0.0000000000
     30406       264  POPC      H18S           39.6107267905      -10.2617311654       -1.7550333755  MEMB      264             0.0000000000
     30407       264  POPC      H18T           39.1410442946       -9.7276695599       -0.1203657096  MEMB      264             0.0000000000
     30408       264  POPC      C33            39.2579940570       -4.2304490125      -12.4013846044  MEMB      264             0.0000000000
     30409       264  POPC      H3X            38.7484036098       -5.2141730836      -12.3181648511  MEMB      264             0.0000000000
     30410       264  POPC      H3Y            38.9707487346       -3.8087992072      -13.3883103777  MEMB      264             0.0000000000
     30411       264  POPC      C34            38.8855282614       -3.3719815773      -11.1664427613  MEMB      264             0.0000000000
     30412       264  POPC      H4X            39.5234479472       -2.4624913006      -11.1520464818  MEMB      264             0.0000000000
     30413       264  POPC      H4Y            39.1031645545       -3.8598982759      -10.1923309679  MEMB      264             0.0000000000
     30414       264  POPC      C35            37.4151838652       -3.0332609532      -11.1431725215  MEMB      264             0.0000000000
     30415       264  POPC      H5X            36.8245821913       -3.9695791238      -11.0492623477  MEMB      264             0.0000000000
     30416       264  POPC      H5Y            37.1942201587       -2.7604064937      -12.1972342518  MEMB      264             0.0000000000
     30417       264  POPC      C36            37.0714056689       -1.8701283581      -10.1897886054  MEMB      264             0.0000000000
     30418       264  POPC      H6X            36.0441326250       -1.5064593101      -10.4060660223  MEMB      264             0.0000000000
     30419       264  POPC      H6Y            37.6509657174       -1.0145502665      -10.5977316026  MEMB      264             0.0000000000
     30420       264  POPC      C37            37.2655081408       -2.0840790249       -8.6808100694  MEMB      264             0.0000000000
     30421       264  POPC      H7X            36.7047473416       -1.2959019719       -8.1343253973  MEMB      264             0.0000000000
     30422       264  POPC      H7Y            38.3056842855       -1.7717802764       -8.4466649059  MEMB      264             0.0000000000
     30423       264  POPC      C38            36.7072623828       -3.4239347505       -8.1292059475  MEMB      264             0.0000000000
     30424       264  POPC      H8X            37.3824581361       -4.2634233957       -8.4006652350  MEMB      264             0.0000000000
     30425       264  POPC      H8Y            35.6472273191       -3.5788387536       -8.4235724368  MEMB      264             0.0000000000
     30426       264  POPC      C39            36.6081146100       -3.4370353604       -6.6272168826  MEMB      264             0.0000000000
     30427       264  POPC      H9X            35.9716189331       -4.3343503875       -6.4722332638  MEMB      264             0.0000000000
     30428       264  POPC      H9Y            36.1191385102       -2.5547861475       -6.1615355236  MEMB      264             0.0000000000
     30429       264  POPC      C310           38.0287804114       -3.6562309324       -5.9019170316  MEMB      264             0.0000000000
     30430       264  POPC      H10X           38.7272611449       -2.9487053534       -6.3977526393  MEMB      264             0.0000000000
     30431       264  POPC      H10Y           38.4242470149       -4.6589442839       -6.1711623785  MEMB      264             0.0000000000
     30432       264  POPC      C311           38.1365208335       -3.2992285870       -4.4662167499  MEMB      264             0.0000000000
     30433       264  POPC      H11X           37.9303977635       -2.2259111398       -4.2666579080  MEMB      264             0.0000000000
     30434       264  POPC      H11Y           39.2081722686       -3.4469711870       -4.2131225773  MEMB      264             0.0000000000
     30435       264  POPC      C312           37.1940635704       -4.1342119813       -3.6591913780  MEMB      264             0.0000000000
     30436       264  POPC      H12X           37.6562780742       -5.1434667004       -3.6135450987  MEMB      264             0.0000000000
     30437       264  POPC      H12Y           36.2221083984       -4.2800751147       -4.1772139672  MEMB      264             0.0000000000
     30438       264  POPC      C313           36.9556308894       -3.6623046576       -2.2200103626  MEMB      264             0.0000000000
     30439       264  POPC      H13X           36.6794455239       -2.5896576871       -2.3064465881  MEMB      264             0.0000000000
     30440       264  POPC      H13Y           37.8370145147       -3.6542427033       -1.5436832128  MEMB      264             0.0000000000
     30441       264  POPC      C314           35.9596880392       -4.4249104123       -1.2849764008  MEMB      264             0.0000000000
     30442       264  POPC      H14X           35.9156493456       -3.8658560714       -0.3258928649  MEMB      264             0.0000000000
     30443       264  POPC      H14Y           36.1496368408       -5.5016215033       -1.0876597830  MEMB      264             0.0000000000
     30444       264  POPC      C315           34.5185246837       -4.3688380507       -1.7481417649  MEMB      264             0.0000000000
     30445       264  POPC      H15X           33.7990472088       -4.7785388384       -1.0073199526  MEMB      264             0.0000000000
     30446       264  POPC      H15Y           34.4990351357       -4.7855337014       -2.7778537889  MEMB      264             0.0000000000
     30447       264  POPC      C316           33.9971158017       -2.8963218421       -2.0744029940  MEMB      264             0.0000000000
     30448       264  POPC      H16X           34.0351906397       -2.2745426650       -1.1544763143  MEMB      264             0.0000000000
     30449       264  POPC      H16Y           32.9594644119       -2.9411589549       -2.4688521074  MEMB      264             0.0000000000
     30450       264  POPC      H16Z           34.6294853060       -2.4534910211       -2.8733590084  MEMB      264             0.0000000000
     30451       265  POPC      N              26.1275870011      -33.5490360780      -20.4837004102  MEMB      265             0.0000000000
     30452       265  POPC      C12            25.6735670341      -35.0771867481      -20.4903605998  MEMB      265             0.0000000000
     30453       265  POPC      H12A           26.4262634976      -35.8269363296      -20.2961341780  MEMB      265             0.0000000000
     30454       265  POPC      H12B           25.4296245411      -35.3729873192      -21.5000109931  MEMB      265             0.0000000000
     30455       265  POPC      C13            26.7370263535      -33.3333057118      -19.1474379634  MEMB      265             0.0000000000
     30456       265  POPC      H13A           27.1084573892      -32.3252801124      -19.0364272096  MEMB      265             0.0000000000
     30457       265  POPC      H13B           25.9576907689      -33.4350046717      -18.4066994328  MEMB      265             0.0000000000
     30458       265  POPC      H13C           27.5755521016      -33.9778878063      -18.9288323434  MEMB      265             0.0000000000
     30459       265  POPC      C14            27.1503310737      -33.3130842741      -21.5667844624  MEMB      265             0.0000000000
     30460       265  POPC      H14A           26.6743213641      -33.5146577152      -22.5150370511  MEMB      265             0.0000000000
     30461       265  POPC      H14B           27.4375099646      -32.2719658884      -21.5658719664  MEMB      265             0.0000000000
     30462       265  POPC      H14C           27.9772754527      -33.9635615856      -21.3229763317  MEMB      265             0.0000000000
     30463       265  POPC      C15            24.8291179496      -32.7427794079      -20.6619508154  MEMB      265             0.0000000000
     30464       265  POPC      H15A           24.3127290468      -33.0165618065      -21.5701278334  MEMB      265             0.0000000000
     30465       265  POPC      H15B           25.0402678796      -31.7034411482      -20.8658908063  MEMB      265             0.0000000000
     30466       265  POPC      H15C           24.1854399985      -32.6668722949      -19.7980544211  MEMB      265             0.0000000000
     30467       265  POPC      C11            24.4657482524      -35.4749770566      -19.5746449541  MEMB      265             0.0000000000
     30468       265  POPC      H11A           24.5053105091      -36.5848360656      -19.5435151026  MEMB      265             0.0000000000
     30469       265  POPC      H11B           23.5908920189      -35.1726802158      -20.1891074333  MEMB      265             0.0000000000
     30470       265  POPC      P              23.2204337888      -34.9130989367      -17.4396685567  MEMB      265             0.0000000000
     30471       265  POPC      O13            22.2391667885      -35.9581746128      -17.8800772650  MEMB      265             0.0000000000
     30472       265  POPC      O14            22.6924562325      -33.4988018969      -17.3623647909  MEMB      265             0.0000000000
     30473       265  POPC      O12            24.4902051883      -34.8352177461      -18.3410095156  MEMB      265             0.0000000000
     30474       265  POPC      O11            24.0422876390      -35.2319161270      -16.0520006206  MEMB      265             0.0000000000
     30475       265  POPC      C1             25.2109328754      -35.9292240713      -15.9329128759  MEMB      265             0.0000000000
     30476       265  POPC      HA             26.1152661921      -35.3777160059      -16.2680861141  MEMB      265             0.0000000000
     30477       265  POPC      HB             25.2885115368      -36.7772153606      -16.6465047247  MEMB      265             0.0000000000
     30478       265  POPC      C2             25.3501989237      -36.4169693318      -14.5116187821  MEMB      265             0.0000000000
     30479       265  POPC      HS             24.3369350226      -36.5709217795      -14.0827647476  MEMB      265             0.0000000000
     30480       265  POPC      O21            26.0329144359      -35.4666628181      -13.6863474602  MEMB      265             0.0000000000
     30481       265  POPC      C21            25.2921783682      -34.6063256566      -12.9327645139  MEMB      265             0.0000000000
     30482       265  POPC      O22            24.0671629954      -34.6701774887      -12.7877311183  MEMB      265             0.0000000000
     30483       265  POPC      C22            26.1650151166      -33.5555048793      -12.2485828345  MEMB      265             0.0000000000
     30484       265  POPC      H2R            26.0310360114      -32.5738737154      -12.7513457717  MEMB      265             0.0000000000
     30485       265  POPC      H2S            27.2501437689      -33.7761508993      -12.3387621924  MEMB      265             0.0000000000
     30486       265  POPC      C3             26.0749723533      -37.8073241521      -14.4018882422  MEMB      265             0.0000000000
     30487       265  POPC      HX             26.9786751659      -37.5901138411      -15.0105441308  MEMB      265             0.0000000000
     30488       265  POPC      HY             25.4297997623      -38.5529657457      -14.9138375676  MEMB      265             0.0000000000
     30489       265  POPC      O31            26.4380761971      -38.2139553274      -13.0192473438  MEMB      265             0.0000000000
     30490       265  POPC      C31            25.5276088010      -38.4779527733      -12.1137995806  MEMB      265             0.0000000000
     30491       265  POPC      O32            24.3534882979      -38.6156934876      -12.3776087038  MEMB      265             0.0000000000
     30492       265  POPC      C32            26.1422898325      -38.6499921817      -10.6934324617  MEMB      265             0.0000000000
     30493       265  POPC      H2X            26.8221837589      -37.7802870583      -10.5682195414  MEMB      265             0.0000000000
     30494       265  POPC      H2Y            26.6839718172      -39.6106619561      -10.5592135544  MEMB      265             0.0000000000
     30495       265  POPC      C23            25.8334556096      -33.1980609489      -10.8139115300  MEMB      265             0.0000000000
     30496       265  POPC      H3R            24.7498586006      -32.9555495166      -10.8503367713  MEMB      265             0.0000000000
     30497       265  POPC      H3S            26.3366222172      -32.2486018069      -10.5316501137  MEMB      265             0.0000000000
     30498       265  POPC      C24            26.0285231115      -34.2632614643       -9.7861054458  MEMB      265             0.0000000000
     30499       265  POPC      H4R            25.2750071138      -35.0317431789      -10.0617332769  MEMB      265             0.0000000000
     30500       265  POPC      H4S            25.6234145192      -33.8416992409       -8.8413864953  MEMB      265             0.0000000000
     30501       265  POPC      C25            27.4321742609      -34.7379407559       -9.6017576249  MEMB      265             0.0000000000
     30502       265  POPC      H5R            28.0849485289      -33.8418703777       -9.6743138276  MEMB      265             0.0000000000
     30503       265  POPC      H5S            27.6675854277      -35.5119585851      -10.3632026743  MEMB      265             0.0000000000
     30504       265  POPC      C26            27.7089521411      -35.2427080387       -8.1538959250  MEMB      265             0.0000000000
     30505       265  POPC      H6R            28.3209993453      -36.1387806594       -8.3921667595  MEMB      265             0.0000000000
     30506       265  POPC      H6S            26.8018274977      -35.6964874297       -7.7005419004  MEMB      265             0.0000000000
     30507       265  POPC      C27            28.6099188259      -34.5237740505       -7.0281130285  MEMB      265             0.0000000000
     30508       265  POPC      H7R            28.4365837422      -33.4353434303       -7.1680947085  MEMB      265             0.0000000000
     30509       265  POPC      H7S            29.6927649170      -34.6871112027       -7.2154251596  MEMB      265             0.0000000000
     30510       265  POPC      C28            28.3243938226      -34.8488416363       -5.4907401768  MEMB      265             0.0000000000
     30511       265  POPC      H8R            28.5979912616      -35.9161710957       -5.3483572360  MEMB      265             0.0000000000
     30512       265  POPC      H8S            27.2442701045      -34.7731536868       -5.2418925290  MEMB      265             0.0000000000
     30513       265  POPC      C29            29.2032068285      -34.1254701540       -4.5601930774  MEMB      265             0.0000000000
     30514       265  POPC      H91            30.2906835476      -34.2638102081       -4.6510544633  MEMB      265             0.0000000000
     30515       265  POPC      C210           28.7835690417      -33.2720031202       -3.6037866210  MEMB      265             0.0000000000
     30516       265  POPC      H101           29.5489066762      -32.8072817029       -2.9648091787  MEMB      265             0.0000000000
     30517       265  POPC      C211           27.3617550259      -32.9565179536       -3.2596806967  MEMB      265             0.0000000000
     30518       265  POPC      H11R           27.3343752435      -32.2879180146       -2.3728061998  MEMB      265             0.0000000000
     30519       265  POPC      H11S           26.8622436998      -33.8636164882       -2.8572104249  MEMB      265             0.0000000000
     30520       265  POPC      C212           26.4401111058      -32.1963372844       -4.2526090716  MEMB      265             0.0000000000
     30521       265  POPC      H12R           26.3231668350      -32.8633327583       -5.1333827017  MEMB      265             0.0000000000
     30522       265  POPC      H12S           26.7047066073      -31.2132724221       -4.6974612767  MEMB      265             0.0000000000
     30523       265  POPC      C213           24.9442174382      -31.9985204961       -3.8983500180  MEMB      265             0.0000000000
     30524       265  POPC      H13R           24.5244040309      -31.4136870600       -4.7445462113  MEMB      265             0.0000000000
     30525       265  POPC      H13S           24.8181315210      -31.4638834859       -2.9326446677  MEMB      265             0.0000000000
     30526       265  POPC      C214           24.1086483514      -33.2627445146       -3.9655265303  MEMB      265             0.0000000000
     30527       265  POPC      H14R           24.3900995620      -33.8801820554       -3.0858244604  MEMB      265             0.0000000000
     30528       265  POPC      H14S           24.3416489010      -33.6998513315       -4.9599960861  MEMB      265             0.0000000000
     30529       265  POPC      C215           22.5735157203      -33.1340078741       -3.6632020858  MEMB      265             0.0000000000
     30530       265  POPC      H15R           22.1656544107      -34.1559977394       -3.5098819137  MEMB      265             0.0000000000
     30531       265  POPC      H15S           22.0193850521      -32.6659129619       -4.5047166621  MEMB      265             0.0000000000
     30532       265  POPC      C216           22.2805490594      -32.3986269232       -2.2870316726  MEMB      265             0.0000000000
     30533       265  POPC      H16R           21.1818983397      -32.2616484474       -2.3793614912  MEMB      265             0.0000000000
     30534       265  POPC      H16S           22.6929578993      -31.3712467480       -2.3804652613  MEMB      265             0.0000000000
     30535       265  POPC      C217           22.6369772433      -33.3549773571       -1.1147897037  MEMB      265             0.0000000000
     30536       265  POPC      H17R           23.7453368095      -33.4312666354       -1.1084539501  MEMB      265             0.0000000000
     30537       265  POPC      H17S           22.2462677057      -34.3941251429       -1.1576735952  MEMB      265             0.0000000000
     30538       265  POPC      C218           22.3094272939      -32.9261753645        0.3594736160  MEMB      265             0.0000000000
     30539       265  POPC      H18R           21.2561685379      -32.6806393742        0.6137954228  MEMB      265             0.0000000000
     30540       265  POPC      H18S           23.0255285092      -32.1025803330        0.5673469974  MEMB      265             0.0000000000
     30541       265  POPC      H18T           22.5272670325      -33.8331378925        0.9630349259  MEMB      265             0.0000000000
     30542       265  POPC      C33            25.0099000848      -38.4762279976       -9.6281898216  MEMB      265             0.0000000000
     30543       265  POPC      H3X            24.1692368159      -39.1459454258       -9.9094104344  MEMB      265             0.0000000000
     30544       265  POPC      H3Y            24.6898317666      -37.4124266320       -9.6139157717  MEMB      265             0.0000000000
     30545       265  POPC      C34            25.5416245259      -38.9384345424       -8.2746642428  MEMB      265             0.0000000000
     30546       265  POPC      H4X            26.5297834867      -38.4638832975       -8.0939323836  MEMB      265             0.0000000000
     30547       265  POPC      H4Y            25.7497317289      -40.0204693927       -8.4168364156  MEMB      265             0.0000000000
     30548       265  POPC      C35            24.6126190750      -38.4939853717       -7.1140779394  MEMB      265             0.0000000000
     30549       265  POPC      H5X            23.5679196054      -38.5240332193       -7.4909346848  MEMB      265             0.0000000000
     30550       265  POPC      H5Y            24.7837404610      -37.4201659420       -6.8861522861  MEMB      265             0.0000000000
     30551       265  POPC      C36            24.7180708058      -39.3207410423       -5.8623911989  MEMB      265             0.0000000000
     30552       265  POPC      H6X            25.7524595521      -39.3086698474       -5.4571569145  MEMB      265             0.0000000000
     30553       265  POPC      H6Y            24.6725604790      -40.4023464803       -6.1121495285  MEMB      265             0.0000000000
     30554       265  POPC      C37            23.5271123708      -39.1005257908       -4.9682106860  MEMB      265             0.0000000000
     30555       265  POPC      H7X            23.4899810748      -39.6477274530       -4.0020265207  MEMB      265             0.0000000000
     30556       265  POPC      H7Y            22.6576316180      -39.2650402739       -5.6399688048  MEMB      265             0.0000000000
     30557       265  POPC      C38            23.2923817123      -37.7063980194       -4.4649814191  MEMB      265             0.0000000000
     30558       265  POPC      H8X            22.2067003965      -37.6039004234       -4.2525874151  MEMB      265             0.0000000000
     30559       265  POPC      H8Y            23.5130933746      -36.9454763930       -5.2438303096  MEMB      265             0.0000000000
     30560       265  POPC      C39            24.0301775194      -37.3945260879       -3.1301004900  MEMB      265             0.0000000000
     30561       265  POPC      H9X            23.6889507427      -38.1100599085       -2.3517075217  MEMB      265             0.0000000000
     30562       265  POPC      H9Y            23.6479475557      -36.4568280097       -2.6729970722  MEMB      265             0.0000000000
     30563       265  POPC      C310           25.5583838098      -37.2460801391       -3.2378756760  MEMB      265             0.0000000000
     30564       265  POPC      H10X           25.9158806492      -36.4136492358       -3.8809733735  MEMB      265             0.0000000000
     30565       265  POPC      H10Y           25.9663445694      -38.1624529612       -3.7155256892  MEMB      265             0.0000000000
     30566       265  POPC      C311           26.3135401607      -37.1532296720       -1.9266857818  MEMB      265             0.0000000000
     30567       265  POPC      H11X           27.4018998414      -36.9724295604       -2.0574743790  MEMB      265             0.0000000000
     30568       265  POPC      H11Y           26.1728404532      -38.1137847164       -1.3864464221  MEMB      265             0.0000000000
     30569       265  POPC      C312           25.8435619708      -36.0801118096       -0.8763207774  MEMB      265             0.0000000000
     30570       265  POPC      H12X           24.7553524230      -36.1402587169       -0.6606751114  MEMB      265             0.0000000000
     30571       265  POPC      H12Y           26.0237268161      -35.0915847664       -1.3503221387  MEMB      265             0.0000000000
     30572       265  POPC      C313           26.8536028869      -36.0335117010        0.2782489211  MEMB      265             0.0000000000
     30573       265  POPC      H13X           27.7969797386      -35.5142843513        0.0048205860  MEMB      265             0.0000000000
     30574       265  POPC      H13Y           27.0682251508      -37.0986812935        0.5099213666  MEMB      265             0.0000000000
     30575       265  POPC      C314           26.2067306607      -35.4518049151        1.5595737776  MEMB      265             0.0000000000
     30576       265  POPC      H14X           26.7840350219      -35.9700356512        2.3548581126  MEMB      265             0.0000000000
     30577       265  POPC      H14Y           25.1442539597      -35.7471259979        1.6946649122  MEMB      265             0.0000000000
     30578       265  POPC      C315           26.3045106146      -33.9340991969        1.6228687774  MEMB      265             0.0000000000
     30579       265  POPC      H15X           25.9793079804      -33.4693453618        0.6675831451  MEMB      265             0.0000000000
     30580       265  POPC      H15Y           27.3741315270      -33.7883103417        1.8855041327  MEMB      265             0.0000000000
     30581       265  POPC      C316           25.3359608416      -33.2859774982        2.6026416343  MEMB      265             0.0000000000
     30582       265  POPC      H16X           24.2755038412      -33.6078612275        2.5242670873  MEMB      265             0.0000000000
     30583       265  POPC      H16Y           25.4623030778      -32.1824479645        2.6267522042  MEMB      265             0.0000000000
     30584       265  POPC      H16Z           25.6336118246      -33.6728793178        3.6006566134  MEMB      265             0.0000000000
     30585       266  POPC      N             -10.8999499338       37.9734470411      -18.3762106411  MEMB      266             0.0000000000
     30586       266  POPC      C12           -10.6458423389       38.8385249517      -19.5662863505  MEMB      266             0.0000000000
     30587       266  POPC      H12A          -11.1285655671       38.3607257675      -20.4059804256  MEMB      266             0.0000000000
     30588       266  POPC      H12B           -9.5691758649       38.8201114718      -19.6490533914  MEMB      266             0.0000000000
     30589       266  POPC      C13           -12.3882124886       37.6312061039      -18.3515461595  MEMB      266             0.0000000000
     30590       266  POPC      H13A          -12.6645216366       37.4083759439      -17.3315462257  MEMB      266             0.0000000000
     30591       266  POPC      H13B          -12.8222793778       38.5727725212      -18.6539341393  MEMB      266             0.0000000000
     30592       266  POPC      H13C          -12.5129629213       36.8201585422      -19.0537137078  MEMB      266             0.0000000000
     30593       266  POPC      C14           -10.0917964291       36.7355053555      -18.4278612818  MEMB      266             0.0000000000
     30594       266  POPC      H14A          -10.3308220016       36.1007450376      -17.5874172215  MEMB      266             0.0000000000
     30595       266  POPC      H14B          -10.3622231226       36.1697303221      -19.3071610862  MEMB      266             0.0000000000
     30596       266  POPC      H14C           -9.0375240407       36.9698227718      -18.4301079732  MEMB      266             0.0000000000
     30597       266  POPC      C15           -10.6180238130       38.6924965936      -17.0585822937  MEMB      266             0.0000000000
     30598       266  POPC      H15A          -10.7895859141       38.0051044633      -16.2434390658  MEMB      266             0.0000000000
     30599       266  POPC      H15B          -11.2046120211       39.5831034366      -16.8878963946  MEMB      266             0.0000000000
     30600       266  POPC      H15C           -9.5844162668       39.0054255906      -17.0471356484  MEMB      266             0.0000000000
     30601       266  POPC      C11           -11.0401946512       40.3194759453      -19.5567047046  MEMB      266             0.0000000000
     30602       266  POPC      H11A          -10.5754595924       40.7451774317      -20.4716477050  MEMB      266             0.0000000000
     30603       266  POPC      H11B          -10.5364877408       40.8343257142      -18.7108145954  MEMB      266             0.0000000000
     30604       266  POPC      P             -13.2063695252       41.8988992996      -19.5803164709  MEMB      266             0.0000000000
     30605       266  POPC      O13           -14.2173221955       41.9584656245      -20.6574941377  MEMB      266             0.0000000000
     30606       266  POPC      O14           -12.0517009846       42.8401522773      -19.7295257759  MEMB      266             0.0000000000
     30607       266  POPC      O12           -12.4971413587       40.4260803231      -19.5845641109  MEMB      266             0.0000000000
     30608       266  POPC      O11           -13.7368655837       42.1160190415      -18.1109080741  MEMB      266             0.0000000000
     30609       266  POPC      C1            -13.8726240683       41.0137774530      -17.2075516775  MEMB      266             0.0000000000
     30610       266  POPC      HA            -13.0573946856       40.9445586980      -16.4559327240  MEMB      266             0.0000000000
     30611       266  POPC      HB            -13.9223771706       40.0558968989      -17.7681856272  MEMB      266             0.0000000000
     30612       266  POPC      C2            -15.1809271381       41.3651074140      -16.3693177339  MEMB      266             0.0000000000
     30613       266  POPC      HS            -16.0379082621       41.5017448609      -17.0630287910  MEMB      266             0.0000000000
     30614       266  POPC      O21           -14.9257225078       42.5512133772      -15.5751601767  MEMB      266             0.0000000000
     30615       266  POPC      C21           -15.7299260123       42.9449050419      -14.5987428555  MEMB      266             0.0000000000
     30616       266  POPC      O22           -16.8364202143       42.4881178122      -14.3597873718  MEMB      266             0.0000000000
     30617       266  POPC      C22           -15.2377781439       43.9506710476      -13.6673834372  MEMB      266             0.0000000000
     30618       266  POPC      H2R           -15.8315014730       43.9932170790      -12.7292980478  MEMB      266             0.0000000000
     30619       266  POPC      H2S           -15.3636583454       44.9771449177      -14.0733719830  MEMB      266             0.0000000000
     30620       266  POPC      C3            -15.4982884542       40.1142268694      -15.4793029813  MEMB      266             0.0000000000
     30621       266  POPC      HX            -15.4922668502       39.3145571248      -16.2505441610  MEMB      266             0.0000000000
     30622       266  POPC      HY            -16.4840508609       40.1879209642      -14.9721907535  MEMB      266             0.0000000000
     30623       266  POPC      O31           -14.5142901155       39.8443702852      -14.5028885820  MEMB      266             0.0000000000
     30624       266  POPC      C31           -14.0466054909       38.6385306179      -14.4268430757  MEMB      266             0.0000000000
     30625       266  POPC      O32           -14.2890081045       37.7008872519      -15.1250727919  MEMB      266             0.0000000000
     30626       266  POPC      C32           -13.1075066147       38.6520093637      -13.1926714574  MEMB      266             0.0000000000
     30627       266  POPC      H2X           -13.6104669838       39.2080919144      -12.3728398231  MEMB      266             0.0000000000
     30628       266  POPC      H2Y           -12.1542825179       39.1172220969      -13.5232191685  MEMB      266             0.0000000000
     30629       266  POPC      C23           -13.7977487163       43.4884055770      -13.3710281587  MEMB      266             0.0000000000
     30630       266  POPC      H3R           -13.0683415421       43.6868790671      -14.1852115393  MEMB      266             0.0000000000
     30631       266  POPC      H3S           -13.7852526847       42.4083236072      -13.1110517434  MEMB      266             0.0000000000
     30632       266  POPC      C24           -13.2027766125       44.0958582780      -12.1320762620  MEMB      266             0.0000000000
     30633       266  POPC      H4R           -14.0021038978       44.0497754293      -11.3618339908  MEMB      266             0.0000000000
     30634       266  POPC      H4S           -12.9850534025       45.1621447253      -12.3555726250  MEMB      266             0.0000000000
     30635       266  POPC      C25           -11.9376769947       43.4213690508      -11.7038604713  MEMB      266             0.0000000000
     30636       266  POPC      H5R           -10.9930865968       43.5040768800      -12.2828503784  MEMB      266             0.0000000000
     30637       266  POPC      H5S           -12.0590888238       42.3177799719      -11.7447419131  MEMB      266             0.0000000000
     30638       266  POPC      C26           -11.6706490741       43.5572183070      -10.1790181787  MEMB      266             0.0000000000
     30639       266  POPC      H6R           -12.5604871377       43.0339754399       -9.7682558201  MEMB      266             0.0000000000
     30640       266  POPC      H6S           -11.6524808188       44.6430103456       -9.9443984083  MEMB      266             0.0000000000
     30641       266  POPC      C27           -10.3805768096       42.9836073517       -9.5934493106  MEMB      266             0.0000000000
     30642       266  POPC      H7R            -9.5167806919       43.3613720835      -10.1812167307  MEMB      266             0.0000000000
     30643       266  POPC      H7S           -10.4108320221       41.8826002718       -9.7390125416  MEMB      266             0.0000000000
     30644       266  POPC      C28           -10.0914570981       43.3619973590       -8.0840718475  MEMB      266             0.0000000000
     30645       266  POPC      H8R           -10.8936959614       42.8293103485       -7.5300159216  MEMB      266             0.0000000000
     30646       266  POPC      H8S            -9.9209560926       44.4546768393       -7.9777586814  MEMB      266             0.0000000000
     30647       266  POPC      C29            -8.8106920930       42.8138655452       -7.6421459776  MEMB      266             0.0000000000
     30648       266  POPC      H91            -8.0177077647       42.8990415563       -8.3997215564  MEMB      266             0.0000000000
     30649       266  POPC      C210           -8.5942841504       42.2668772836       -6.4397092784  MEMB      266             0.0000000000
     30650       266  POPC      H101           -7.5751997945       41.9655449022       -6.1556922041  MEMB      266             0.0000000000
     30651       266  POPC      C211           -9.6177161638       42.1293144297       -5.3291777536  MEMB      266             0.0000000000
     30652       266  POPC      H11R           -9.6882142392       41.0506978439       -5.0723958559  MEMB      266             0.0000000000
     30653       266  POPC      H11S          -10.6760541514       42.4563488899       -5.4145598248  MEMB      266             0.0000000000
     30654       266  POPC      C212           -9.1473629105       42.9526010378       -4.0519622661  MEMB      266             0.0000000000
     30655       266  POPC      H12R           -9.2699907075       44.0501480768       -4.1730981789  MEMB      266             0.0000000000
     30656       266  POPC      H12S           -8.0765598067       42.7227485244       -3.8652276125  MEMB      266             0.0000000000
     30657       266  POPC      C213           -9.8829228258       42.3697320279       -2.7338503232  MEMB      266             0.0000000000
     30658       266  POPC      H13R           -9.6609468459       41.2823136319       -2.7845360582  MEMB      266             0.0000000000
     30659       266  POPC      H13S          -10.9762167582       42.5212759239       -2.8605948287  MEMB      266             0.0000000000
     30660       266  POPC      C214           -9.5881978500       43.1903561140       -1.5001644340  MEMB      266             0.0000000000
     30661       266  POPC      H14R          -10.4651753397       43.8249117400       -1.2500243872  MEMB      266             0.0000000000
     30662       266  POPC      H14S           -8.6453962918       43.7167034593       -1.7617069098  MEMB      266             0.0000000000
     30663       266  POPC      C215           -9.1480603600       42.4680840522       -0.1432870867  MEMB      266             0.0000000000
     30664       266  POPC      H15R           -8.6800444232       43.2087636920        0.5398495155  MEMB      266             0.0000000000
     30665       266  POPC      H15S           -8.4095019925       41.6891262601       -0.4297773471  MEMB      266             0.0000000000
     30666       266  POPC      C216          -10.3589288464       41.9485155293        0.6208932583  MEMB      266             0.0000000000
     30667       266  POPC      H16R          -11.2020309332       41.6930939780       -0.0560547287  MEMB      266             0.0000000000
     30668       266  POPC      H16S          -10.8253304284       42.6826654727        1.3121343778  MEMB      266             0.0000000000
     30669       266  POPC      C217          -10.0137172112       40.6253073799        1.3585888570  MEMB      266             0.0000000000
     30670       266  POPC      H17R           -9.1113168212       40.7950214745        1.9840431102  MEMB      266             0.0000000000
     30671       266  POPC      H17S           -9.7589568967       39.8168173930        0.6404235528  MEMB      266             0.0000000000
     30672       266  POPC      C218          -11.2068899095       40.0391977342        2.2209679739  MEMB      266             0.0000000000
     30673       266  POPC      H18R          -11.4244534748       40.5809311917        3.1662251897  MEMB      266             0.0000000000
     30674       266  POPC      H18S          -11.2715072473       38.9415682723        2.3802013285  MEMB      266             0.0000000000
     30675       266  POPC      H18T          -12.1455471739       40.3385631473        1.7075255897  MEMB      266             0.0000000000
     30676       266  POPC      C33           -12.8442287092       37.1763292718      -12.7664576268  MEMB      266             0.0000000000
     30677       266  POPC      H3X           -12.2010204767       36.5959356845      -13.4619768510  MEMB      266             0.0000000000
     30678       266  POPC      H3Y           -13.7964112958       36.7567941264      -12.3770224592  MEMB      266             0.0000000000
     30679       266  POPC      C34           -11.9322739029       37.1102408743      -11.4935685565  MEMB      266             0.0000000000
     30680       266  POPC      H4X           -10.9405098308       37.4789665965      -11.8323409492  MEMB      266             0.0000000000
     30681       266  POPC      H4Y           -11.9928743563       36.0893620581      -11.0594546908  MEMB      266             0.0000000000
     30682       266  POPC      C35           -12.2326094554       38.1251735376      -10.3049170863  MEMB      266             0.0000000000
     30683       266  POPC      H5X           -13.3133068586       38.1046224026      -10.0480289051  MEMB      266             0.0000000000
     30684       266  POPC      H5Y           -11.9765050968       39.1909365951      -10.4862478775  MEMB      266             0.0000000000
     30685       266  POPC      C36           -11.5669042086       37.7928479502       -8.8798253367  MEMB      266             0.0000000000
     30686       266  POPC      H6X           -10.4777690987       38.0064783660       -8.8301505537  MEMB      266             0.0000000000
     30687       266  POPC      H6Y           -11.6387386439       36.6951581551       -8.7241386972  MEMB      266             0.0000000000
     30688       266  POPC      C37           -12.2444870352       38.4969304623       -7.7075391754  MEMB      266             0.0000000000
     30689       266  POPC      H7X           -11.6233673960       38.5410587878       -6.7874391718  MEMB      266             0.0000000000
     30690       266  POPC      H7Y           -13.0436807144       37.8408758427       -7.3010876931  MEMB      266             0.0000000000
     30691       266  POPC      C38           -12.9250093006       39.8276847786       -8.0256306943  MEMB      266             0.0000000000
     30692       266  POPC      H8X           -13.8517108334       39.6883470904       -8.6223967484  MEMB      266             0.0000000000
     30693       266  POPC      H8Y           -12.0920362707       40.3868607444       -8.5029132553  MEMB      266             0.0000000000
     30694       266  POPC      C39           -13.1376939939       40.6678900037       -6.8034203039  MEMB      266             0.0000000000
     30695       266  POPC      H9X           -12.2699634871       41.0415421106       -6.2188269810  MEMB      266             0.0000000000
     30696       266  POPC      H9Y           -13.7877269386       40.0558916629       -6.1421815631  MEMB      266             0.0000000000
     30697       266  POPC      C310          -14.0271051521       41.8586293432       -7.1829965334  MEMB      266             0.0000000000
     30698       266  POPC      H10X          -14.8498723716       41.4781114433       -7.8253217603  MEMB      266             0.0000000000
     30699       266  POPC      H10Y          -13.3795682094       42.4946066374       -7.8237384882  MEMB      266             0.0000000000
     30700       266  POPC      C311          -14.6377249808       42.5739521952       -5.9931744079  MEMB      266             0.0000000000
     30701       266  POPC      H11X          -15.5103146495       43.1549122495       -6.3611336064  MEMB      266             0.0000000000
     30702       266  POPC      H11Y          -13.9372992971       43.3625020041       -5.6440131365  MEMB      266             0.0000000000
     30703       266  POPC      C312          -15.1582670467       41.7100759679       -4.9032875113  MEMB      266             0.0000000000
     30704       266  POPC      H12X          -15.5764037905       40.7511085637       -5.2772717715  MEMB      266             0.0000000000
     30705       266  POPC      H12Y          -15.8986536433       42.3738515013       -4.4077575152  MEMB      266             0.0000000000
     30706       266  POPC      C313          -14.1278539915       41.5117525044       -3.7543990444  MEMB      266             0.0000000000
     30707       266  POPC      H13X          -13.9436067738       42.5537905730       -3.4159758963  MEMB      266             0.0000000000
     30708       266  POPC      H13Y          -13.1511982907       41.2373224905       -4.2073376495  MEMB      266             0.0000000000
     30709       266  POPC      C314          -14.5478067692       40.5641633087       -2.6025645499  MEMB      266             0.0000000000
     30710       266  POPC      H14X          -15.4967273856       40.9748027634       -2.1960598657  MEMB      266             0.0000000000
     30711       266  POPC      H14Y          -13.6862604576       40.5976355686       -1.9018928763  MEMB      266             0.0000000000
     30712       266  POPC      C315          -14.6743847474       39.0927043570       -3.0040882959  MEMB      266             0.0000000000
     30713       266  POPC      H15X          -13.8327423778       38.7134468669       -3.6222488950  MEMB      266             0.0000000000
     30714       266  POPC      H15Y          -15.5549793805       38.9097587516       -3.6563187221  MEMB      266             0.0000000000
     30715       266  POPC      C316          -14.7191242846       38.3073334580       -1.7269988307  MEMB      266             0.0000000000
     30716       266  POPC      H16X          -14.2915048997       37.3246269930       -2.0198288893  MEMB      266             0.0000000000
     30717       266  POPC      H16Y          -15.7745347125       38.4874639418       -1.4303801372  MEMB      266             0.0000000000
     30718       266  POPC      H16Z          -14.0650429567       38.6831901908       -0.9113819811  MEMB      266             0.0000000000
     30719       267  POPC      N             -18.5479789378       35.4578960452      -18.8494113898  MEMB      267             0.0000000000
     30720       267  POPC      C12           -17.5568977260       34.6174935340      -18.1461434143  MEMB      267             0.0000000000
     30721       267  POPC      H12A          -17.9718109602       33.7742212184      -17.6140355502  MEMB      267             0.0000000000
     30722       267  POPC      H12B          -17.0282633624       35.2130677575      -17.4165974862  MEMB      267             0.0000000000
     30723       267  POPC      C13           -17.8918798390       36.5507235587      -19.7112053107  MEMB      267             0.0000000000
     30724       267  POPC      H13A          -17.2143543362       35.9084332488      -20.2541809023  MEMB      267             0.0000000000
     30725       267  POPC      H13B          -18.5904637688       37.0089996951      -20.3955762919  MEMB      267             0.0000000000
     30726       267  POPC      H13C          -17.3787258341       37.2311098944      -19.0477691813  MEMB      267             0.0000000000
     30727       267  POPC      C14           -19.4799279184       34.6428978615      -19.6943670357  MEMB      267             0.0000000000
     30728       267  POPC      H14A          -19.1211898159       34.4734570749      -20.6988554186  MEMB      267             0.0000000000
     30729       267  POPC      H14B          -19.7821017681       33.7333295908      -19.1965955006  MEMB      267             0.0000000000
     30730       267  POPC      H14C          -20.2545276166       35.3510657784      -19.9491085010  MEMB      267             0.0000000000
     30731       267  POPC      C15           -19.3669213691       36.0963724741      -17.7017485191  MEMB      267             0.0000000000
     30732       267  POPC      H15A          -18.7234659153       36.5901802896      -16.9886434357  MEMB      267             0.0000000000
     30733       267  POPC      H15B          -19.9059257223       35.3833078800      -17.0956024247  MEMB      267             0.0000000000
     30734       267  POPC      H15C          -20.0464217497       36.8356956884      -18.0993419177  MEMB      267             0.0000000000
     30735       267  POPC      C11           -16.4230135853       34.0009655574      -19.0664780764  MEMB      267             0.0000000000
     30736       267  POPC      H11A          -15.6178780027       33.8206476273      -18.3224598284  MEMB      267             0.0000000000
     30737       267  POPC      H11B          -15.9729285068       34.6246299585      -19.8682181796  MEMB      267             0.0000000000
     30738       267  POPC      P             -16.8925711578       31.5266801998      -19.1740792097  MEMB      267             0.0000000000
     30739       267  POPC      O13           -15.9329814761       30.6291806794      -19.8679612140  MEMB      267             0.0000000000
     30740       267  POPC      O14           -18.2470122334       31.1216728227      -19.2910400978  MEMB      267             0.0000000000
     30741       267  POPC      O12           -16.8939112030       32.9136776502      -19.8084000061  MEMB      267             0.0000000000
     30742       267  POPC      O11           -16.4553852455       31.8620748235      -17.6891657281  MEMB      267             0.0000000000
     30743       267  POPC      C1            -16.2210159034       30.7599889968      -16.8269971552  MEMB      267             0.0000000000
     30744       267  POPC      HA            -15.6451611346       31.0658311854      -15.9274567619  MEMB      267             0.0000000000
     30745       267  POPC      HB            -15.5506472726       30.0319633972      -17.3318785698  MEMB      267             0.0000000000
     30746       267  POPC      C2            -17.6143238716       30.2080118137      -16.2488143965  MEMB      267             0.0000000000
     30747       267  POPC      HS            -18.1340359523       29.7246148854      -17.1035352629  MEMB      267             0.0000000000
     30748       267  POPC      O21           -18.3216901217       31.3377814045      -15.6227003454  MEMB      267             0.0000000000
     30749       267  POPC      C21           -19.5725092387       31.3065227979      -15.3931269381  MEMB      267             0.0000000000
     30750       267  POPC      O22           -20.3904759100       30.4492595409      -15.6500100393  MEMB      267             0.0000000000
     30751       267  POPC      C22           -19.9733019984       32.6139485011      -14.6625131785  MEMB      267             0.0000000000
     30752       267  POPC      H2R           -20.4440715676       33.2038021991      -15.4778471596  MEMB      267             0.0000000000
     30753       267  POPC      H2S           -19.0240942031       33.1342329921      -14.4122539220  MEMB      267             0.0000000000
     30754       267  POPC      C3            -17.3624554284       29.0157453411      -15.2573610784  MEMB      267             0.0000000000
     30755       267  POPC      HX            -16.8755325447       28.1308441713      -15.7201537843  MEMB      267             0.0000000000
     30756       267  POPC      HY            -18.3111821819       28.6453339950      -14.8134762554  MEMB      267             0.0000000000
     30757       267  POPC      O31           -16.4376274807       29.4212513745      -14.2428495451  MEMB      267             0.0000000000
     30758       267  POPC      C31           -16.7961737279       29.0738149719      -13.0292783610  MEMB      267             0.0000000000
     30759       267  POPC      O32           -17.9341645759       28.8162738183      -12.7192967497  MEMB      267             0.0000000000
     30760       267  POPC      C32           -15.5609170204       29.1313131426      -12.1647045354  MEMB      267             0.0000000000
     30761       267  POPC      H2X           -14.6638390966       29.3935680268      -12.7653662582  MEMB      267             0.0000000000
     30762       267  POPC      H2Y           -15.3845178251       28.1451758193      -11.6843526796  MEMB      267             0.0000000000
     30763       267  POPC      C23           -20.8595821979       32.4758595580      -13.4212468495  MEMB      267             0.0000000000
     30764       267  POPC      H3R           -21.1997228929       31.4190836585      -13.3782357871  MEMB      267             0.0000000000
     30765       267  POPC      H3S           -21.8050572370       33.0588693153      -13.4435564538  MEMB      267             0.0000000000
     30766       267  POPC      C24           -20.1087128635       32.7878968967      -12.1175998719  MEMB      267             0.0000000000
     30767       267  POPC      H4R           -19.6552356383       33.8014315051      -12.0798238159  MEMB      267             0.0000000000
     30768       267  POPC      H4S           -19.2713192093       32.0609997551      -12.1862534442  MEMB      267             0.0000000000
     30769       267  POPC      C25           -20.8875543426       32.5862035061      -10.8538119139  MEMB      267             0.0000000000
     30770       267  POPC      H5R           -21.3397761074       31.5736055449      -10.9206089418  MEMB      267             0.0000000000
     30771       267  POPC      H5S           -21.7667967163       33.2649420334      -10.8299826830  MEMB      267             0.0000000000
     30772       267  POPC      C26           -20.0857548672       32.6744329040       -9.5474915772  MEMB      267             0.0000000000
     30773       267  POPC      H6R           -20.7858307039       32.5801901490       -8.6899759339  MEMB      267             0.0000000000
     30774       267  POPC      H6S           -19.7849934395       33.7438226702       -9.5310911081  MEMB      267             0.0000000000
     30775       267  POPC      C27           -18.8982891167       31.7070656572       -9.3445143241  MEMB      267             0.0000000000
     30776       267  POPC      H7R           -18.2052349925       32.0552985507       -8.5490710720  MEMB      267             0.0000000000
     30777       267  POPC      H7S           -18.2302400173       31.6101793412      -10.2269233893  MEMB      267             0.0000000000
     30778       267  POPC      C28           -19.3020803515       30.2704575482       -9.0636002481  MEMB      267             0.0000000000
     30779       267  POPC      H8R           -18.4451902525       29.8576054586       -8.4894802087  MEMB      267             0.0000000000
     30780       267  POPC      H8S           -19.2095768473       29.7275001781      -10.0284634966  MEMB      267             0.0000000000
     30781       267  POPC      C29           -20.6294149763       30.0467707877       -8.4636331193  MEMB      267             0.0000000000
     30782       267  POPC      H91           -21.4072317282       30.3843287732       -9.1643866284  MEMB      267             0.0000000000
     30783       267  POPC      C210          -20.8610289126       29.5566233231       -7.2670698743  MEMB      267             0.0000000000
     30784       267  POPC      H101          -21.9238841810       29.4376795455       -7.0097927368  MEMB      267             0.0000000000
     30785       267  POPC      C211          -19.7995239518       29.0952701773       -6.3008509328  MEMB      267             0.0000000000
     30786       267  POPC      H11R          -18.9875775648       28.5865868647       -6.8632603268  MEMB      267             0.0000000000
     30787       267  POPC      H11S          -20.1293126572       28.3530732630       -5.5427587266  MEMB      267             0.0000000000
     30788       267  POPC      C212          -19.1421708066       30.2743286421       -5.5473077821  MEMB      267             0.0000000000
     30789       267  POPC      H12R          -18.5522089676       30.9187111301       -6.2336291902  MEMB      267             0.0000000000
     30790       267  POPC      H12S          -18.3953619902       29.8821786721       -4.8242471921  MEMB      267             0.0000000000
     30791       267  POPC      C213          -20.1760677967       31.0975378429       -4.7974837693  MEMB      267             0.0000000000
     30792       267  POPC      H13R          -20.6293886871       30.5450548686       -3.9468461777  MEMB      267             0.0000000000
     30793       267  POPC      H13S          -20.8905326528       31.6063740674       -5.4793531620  MEMB      267             0.0000000000
     30794       267  POPC      C214          -19.4943431150       32.3131297505       -4.0555985686  MEMB      267             0.0000000000
     30795       267  POPC      H14R          -19.1888436740       32.9895986243       -4.8822672138  MEMB      267             0.0000000000
     30796       267  POPC      H14S          -18.5600480006       31.9816317750       -3.5540782072  MEMB      267             0.0000000000
     30797       267  POPC      C215          -20.3871487154       33.0565015355       -3.0611733874  MEMB      267             0.0000000000
     30798       267  POPC      H15R          -19.6872443312       33.8272474249       -2.6733521646  MEMB      267             0.0000000000
     30799       267  POPC      H15S          -20.6269772752       32.5155321797       -2.1208791779  MEMB      267             0.0000000000
     30800       267  POPC      C216          -21.5504219148       33.8230443198       -3.6883778720  MEMB      267             0.0000000000
     30801       267  POPC      H16R          -22.3235101259       33.1029408643       -4.0320440066  MEMB      267             0.0000000000
     30802       267  POPC      H16S          -21.2098077725       34.2372709381       -4.6613727917  MEMB      267             0.0000000000
     30803       267  POPC      C217          -21.9015358161       35.0060508082       -2.8209679745  MEMB      267             0.0000000000
     30804       267  POPC      H17R          -21.0724694836       35.7455542875       -2.8311707629  MEMB      267             0.0000000000
     30805       267  POPC      H17S          -21.9486961928       34.5180437059       -1.8239995223  MEMB      267             0.0000000000
     30806       267  POPC      C218          -23.2301461958       35.6824474654       -3.2257032178  MEMB      267             0.0000000000
     30807       267  POPC      H18R          -24.0599291312       34.9656399054       -3.4045002678  MEMB      267             0.0000000000
     30808       267  POPC      H18S          -23.1687371272       36.0795204002       -4.2615041800  MEMB      267             0.0000000000
     30809       267  POPC      H18T          -23.5220700693       36.4531768150       -2.4806679306  MEMB      267             0.0000000000
     30810       267  POPC      C33           -15.6662530062       30.1751708716      -11.0601087832  MEMB      267             0.0000000000
     30811       267  POPC      H3X           -16.6742178466       30.2118977211      -10.5942989617  MEMB      267             0.0000000000
     30812       267  POPC      H3Y           -15.4958161972       31.1532684911      -11.5587044685  MEMB      267             0.0000000000
     30813       267  POPC      C34           -14.6161995197       29.9825313467      -10.0375385087  MEMB      267             0.0000000000
     30814       267  POPC      H4X           -13.6523638302       30.1464544879      -10.5652415056  MEMB      267             0.0000000000
     30815       267  POPC      H4Y           -14.8293609025       28.9426043261       -9.7097650916  MEMB      267             0.0000000000
     30816       267  POPC      C35           -14.6992852487       30.8101695521       -8.7436641111  MEMB      267             0.0000000000
     30817       267  POPC      H5X           -13.8331074857       30.6026330683       -8.0795968077  MEMB      267             0.0000000000
     30818       267  POPC      H5Y           -15.6138876228       30.4559078266       -8.2218194688  MEMB      267             0.0000000000
     30819       267  POPC      C36           -14.8413224123       32.2910985000       -8.8997314778  MEMB      267             0.0000000000
     30820       267  POPC      H6X           -15.8397075542       32.6287925096       -9.2511720421  MEMB      267             0.0000000000
     30821       267  POPC      H6Y           -14.1452641415       32.6506530424       -9.6874778026  MEMB      267             0.0000000000
     30822       267  POPC      C37           -14.7522224755       33.0650522991       -7.5815597705  MEMB      267             0.0000000000
     30823       267  POPC      H7X           -15.0360261197       34.1279598195       -7.7364920836  MEMB      267             0.0000000000
     30824       267  POPC      H7Y           -13.6513541990       33.0251220835       -7.4372841532  MEMB      267             0.0000000000
     30825       267  POPC      C38           -15.5679676747       32.5638927417       -6.3539995419  MEMB      267             0.0000000000
     30826       267  POPC      H8X           -15.4160228635       31.4954083185       -6.0902293902  MEMB      267             0.0000000000
     30827       267  POPC      H8Y           -16.6247700963       32.5621204411       -6.6967625519  MEMB      267             0.0000000000
     30828       267  POPC      C39           -15.4112509077       33.4562000060       -5.0872366333  MEMB      267             0.0000000000
     30829       267  POPC      H9X           -16.2856655201       33.2932248161       -4.4215348289  MEMB      267             0.0000000000
     30830       267  POPC      H9Y           -15.5516361236       34.5051533935       -5.4253334799  MEMB      267             0.0000000000
     30831       267  POPC      C310          -13.9776411311       33.5234384088       -4.4096289661  MEMB      267             0.0000000000
     30832       267  POPC      H10X          -13.8358573333       34.5274537308       -3.9555672350  MEMB      267             0.0000000000
     30833       267  POPC      H10Y          -13.2547153060       33.4349648261       -5.2485991945  MEMB      267             0.0000000000
     30834       267  POPC      C311          -13.7190715612       32.4331141491       -3.3336029918  MEMB      267             0.0000000000
     30835       267  POPC      H11X          -12.7620605992       32.4559074621       -2.7697492462  MEMB      267             0.0000000000
     30836       267  POPC      H11Y          -13.6902825175       31.4879340336       -3.9168071611  MEMB      267             0.0000000000
     30837       267  POPC      C312          -14.8720766927       32.2682320000       -2.2823116129  MEMB      267             0.0000000000
     30838       267  POPC      H12X          -15.7426374529       31.7995972373       -2.7890924747  MEMB      267             0.0000000000
     30839       267  POPC      H12Y          -14.9956948712       33.2461924140       -1.7698358889  MEMB      267             0.0000000000
     30840       267  POPC      C313          -14.6171314496       31.2729766713       -1.0731777875  MEMB      267             0.0000000000
     30841       267  POPC      H13X          -13.7848795372       31.7146620176       -0.4844573974  MEMB      267             0.0000000000
     30842       267  POPC      H13Y          -14.3825568900       30.3123775202       -1.5796820469  MEMB      267             0.0000000000
     30843       267  POPC      C314          -15.6937910668       30.9915673178       -0.0724676847  MEMB      267             0.0000000000
     30844       267  POPC      H14X          -15.6044583273       30.1195134027        0.6100741925  MEMB      267             0.0000000000
     30845       267  POPC      H14Y          -16.6179371336       30.8416085007       -0.6706218847  MEMB      267             0.0000000000
     30846       267  POPC      C315          -15.8918508306       32.2422160514        0.8219162459  MEMB      267             0.0000000000
     30847       267  POPC      H15X          -15.9077764084       33.2289242581        0.3115494025  MEMB      267             0.0000000000
     30848       267  POPC      H15Y          -15.0259543092       32.3289687981        1.5125813366  MEMB      267             0.0000000000
     30849       267  POPC      C316          -17.0425640652       32.0878286436        1.8655559248  MEMB      267             0.0000000000
     30850       267  POPC      H16X          -16.8785105297       32.7463703960        2.7451752175  MEMB      267             0.0000000000
     30851       267  POPC      H16Y          -17.0412890665       31.0049897513        2.1141093824  MEMB      267             0.0000000000
     30852       267  POPC      H16Z          -18.0580114063       32.2579390122        1.4481231273  MEMB      267             0.0000000000
     30853       268  POPC      N              41.1450603872        1.7025048329      -18.6885681824  MEMB      268             0.0000000000
     30854       268  POPC      C12            40.8908953080        0.2722015557      -18.5788745938  MEMB      268             0.0000000000
     30855       268  POPC      H12A           39.8530517763        0.0711079791      -18.3578727226  MEMB      268             0.0000000000
     30856       268  POPC      H12B           41.3734995749       -0.1161097753      -17.6941670273  MEMB      268             0.0000000000
     30857       268  POPC      C13            40.5102728230        2.3055212647      -17.4215751723  MEMB      268             0.0000000000
     30858       268  POPC      H13A           39.4630678226        2.1029381505      -17.5910504795  MEMB      268             0.0000000000
     30859       268  POPC      H13B           40.9112662840        1.6922556510      -16.6281586934  MEMB      268             0.0000000000
     30860       268  POPC      H13C           40.6812504714        3.3716646654      -17.3991107195  MEMB      268             0.0000000000
     30861       268  POPC      C14            42.5768536913        2.0939030614      -18.7586377864  MEMB      268             0.0000000000
     30862       268  POPC      H14A           42.6022672789        3.1734090436      -18.7791564396  MEMB      268             0.0000000000
     30863       268  POPC      H14B           43.0315557048        1.7120463909      -17.8565116941  MEMB      268             0.0000000000
     30864       268  POPC      H14C           43.0433694340        1.6479092589      -19.6245780285  MEMB      268             0.0000000000
     30865       268  POPC      C15            40.4041387981        2.2703121511      -19.9530095549  MEMB      268             0.0000000000
     30866       268  POPC      H15A           40.4973840184        3.3369104966      -20.0946893713  MEMB      268             0.0000000000
     30867       268  POPC      H15B           39.3611452548        2.0307202109      -19.8075441346  MEMB      268             0.0000000000
     30868       268  POPC      H15C           40.6880255913        1.6656333684      -20.8016388924  MEMB      268             0.0000000000
     30869       268  POPC      C11            41.2734089836       -0.6097412655      -19.7542006249  MEMB      268             0.0000000000
     30870       268  POPC      H11A           40.6205589217       -0.3790124255      -20.6230343761  MEMB      268             0.0000000000
     30871       268  POPC      H11B           40.9983496243       -1.6571398397      -19.5059675307  MEMB      268             0.0000000000
     30872       268  POPC      P              43.6656087785       -1.3180860234      -19.1586356734  MEMB      268             0.0000000000
     30873       268  POPC      O13            45.0161602502       -1.2382823921      -19.8376221783  MEMB      268             0.0000000000
     30874       268  POPC      O14            43.1505527265       -2.7228895474      -19.0710689920  MEMB      268             0.0000000000
     30875       268  POPC      O12            42.6385066599       -0.4244606693      -20.0656055076  MEMB      268             0.0000000000
     30876       268  POPC      O11            43.6223412548       -0.5962706982      -17.7122017335  MEMB      268             0.0000000000
     30877       268  POPC      C1             44.8721519452        0.0172013175      -17.3091349888  MEMB      268             0.0000000000
     30878       268  POPC      HA             44.6039940844        0.8653519016      -16.6435127770  MEMB      268             0.0000000000
     30879       268  POPC      HB             45.4362425312        0.4733318139      -18.1506026940  MEMB      268             0.0000000000
     30880       268  POPC      C2             45.8450761030       -0.9823517739      -16.5781341330  MEMB      268             0.0000000000
     30881       268  POPC      HS             46.7352743956       -1.2377638387      -17.1918382115  MEMB      268             0.0000000000
     30882       268  POPC      O21            45.1501875765       -2.1628774284      -16.2093282101  MEMB      268             0.0000000000
     30883       268  POPC      C21            45.7818717781       -3.2874816201      -16.0388313968  MEMB      268             0.0000000000
     30884       268  POPC      O22            46.9282785573       -3.5541155375      -16.3245519929  MEMB      268             0.0000000000
     30885       268  POPC      C22            44.8479132618       -4.2532544576      -15.3895319706  MEMB      268             0.0000000000
     30886       268  POPC      H2R            45.5349601927       -5.0039883057      -14.9437901467  MEMB      268             0.0000000000
     30887       268  POPC      H2S            44.3108104798       -4.6773467123      -16.2647390120  MEMB      268             0.0000000000
     30888       268  POPC      C3             46.3361306927       -0.3379752396      -15.2320064062  MEMB      268             0.0000000000
     30889       268  POPC      HX             46.9026394803        0.5527356334      -15.5784494371  MEMB      268             0.0000000000
     30890       268  POPC      HY             47.0056976555       -1.0967994429      -14.7735453595  MEMB      268             0.0000000000
     30891       268  POPC      O31            45.2595594401       -0.0212415114      -14.2821476201  MEMB      268             0.0000000000
     30892       268  POPC      C31            45.5293138186        1.0306016964      -13.4321884233  MEMB      268             0.0000000000
     30893       268  POPC      O32            46.5114100719        1.7431719263      -13.4079928910  MEMB      268             0.0000000000
     30894       268  POPC      C32            44.3633461224        1.1823369240      -12.5107438111  MEMB      268             0.0000000000
     30895       268  POPC      H2X            44.2483185708        0.2021282359      -12.0005668079  MEMB      268             0.0000000000
     30896       268  POPC      H2Y            43.4293987355        1.4621881582      -13.0434223620  MEMB      268             0.0000000000
     30897       268  POPC      C23            44.0629547901       -3.7593205766      -14.1727537541  MEMB      268             0.0000000000
     30898       268  POPC      H3R            43.2610871994       -3.0873188207      -14.5465759751  MEMB      268             0.0000000000
     30899       268  POPC      H3S            44.8200314267       -3.0987231598      -13.6986578354  MEMB      268             0.0000000000
     30900       268  POPC      C24            43.3661460817       -4.8613852260      -13.3301347724  MEMB      268             0.0000000000
     30901       268  POPC      H4R            44.1737398771       -5.5622306748      -13.0285906924  MEMB      268             0.0000000000
     30902       268  POPC      H4S            42.6501299926       -5.3641973654      -14.0148403272  MEMB      268             0.0000000000
     30903       268  POPC      C25            42.7549711999       -4.4208896669      -11.9407656681  MEMB      268             0.0000000000
     30904       268  POPC      H5R            41.9296870938       -5.1411611112      -11.7551965204  MEMB      268             0.0000000000
     30905       268  POPC      H5S            42.2537159561       -3.4326236589      -11.8607990478  MEMB      268             0.0000000000
     30906       268  POPC      C26            43.7969561769       -4.6074414405      -10.8120023506  MEMB      268             0.0000000000
     30907       268  POPC      H6R            44.4922953744       -3.7511359089      -10.9445363491  MEMB      268             0.0000000000
     30908       268  POPC      H6S            44.3857495251       -5.5199656436      -11.0464024839  MEMB      268             0.0000000000
     30909       268  POPC      C27            43.3209692805       -4.8464583578       -9.4024587077  MEMB      268             0.0000000000
     30910       268  POPC      H7R            44.2475762698       -4.8654184482       -8.7897916912  MEMB      268             0.0000000000
     30911       268  POPC      H7S            42.7414529533       -5.7869687081       -9.5204514212  MEMB      268             0.0000000000
     30912       268  POPC      C28            42.2747773047       -3.7880210947       -9.0044340829  MEMB      268             0.0000000000
     30913       268  POPC      H8R            41.8217306058       -4.1582711597       -8.0599849430  MEMB      268             0.0000000000
     30914       268  POPC      H8S            41.4420221762       -3.7379738574       -9.7381469750  MEMB      268             0.0000000000
     30915       268  POPC      C29            42.8156063884       -2.4315706233       -8.7845611493  MEMB      268             0.0000000000
     30916       268  POPC      H91            42.5918712839       -1.7167583490       -9.5901575122  MEMB      268             0.0000000000
     30917       268  POPC      C210           43.6616534109       -1.9491499408       -7.7663972929  MEMB      268             0.0000000000
     30918       268  POPC      H101           44.0503705263       -0.9332791985       -7.9304271166  MEMB      268             0.0000000000
     30919       268  POPC      C211           44.2456885674       -2.7137220696       -6.6441509345  MEMB      268             0.0000000000
     30920       268  POPC      H11R           45.3499083834       -2.8362707768       -6.6453589663  MEMB      268             0.0000000000
     30921       268  POPC      H11S           43.9290926255       -3.7781427772       -6.6772686058  MEMB      268             0.0000000000
     30922       268  POPC      C212           43.9407714325       -2.1381549886       -5.2420692343  MEMB      268             0.0000000000
     30923       268  POPC      H12R           43.8702424963       -1.0427098315       -5.4133781681  MEMB      268             0.0000000000
     30924       268  POPC      H12S           44.7053111924       -2.3523497643       -4.4649462795  MEMB      268             0.0000000000
     30925       268  POPC      C213           42.5842061412       -2.6560890052       -4.7878378666  MEMB      268             0.0000000000
     30926       268  POPC      H13R           41.8429032425       -2.7321614981       -5.6118538717  MEMB      268             0.0000000000
     30927       268  POPC      H13S           42.1185991396       -1.9774807406       -4.0414982924  MEMB      268             0.0000000000
     30928       268  POPC      C214           42.6556216324       -4.0706501399       -4.1628286688  MEMB      268             0.0000000000
     30929       268  POPC      H14R           42.9147221737       -4.7511964241       -5.0019027762  MEMB      268             0.0000000000
     30930       268  POPC      H14S           41.6834362323       -4.4635493019       -3.7956686408  MEMB      268             0.0000000000
     30931       268  POPC      C215           43.5994362761       -4.2552146612       -2.9164021030  MEMB      268             0.0000000000
     30932       268  POPC      H15R           44.6145029067       -4.3701225622       -3.3531590804  MEMB      268             0.0000000000
     30933       268  POPC      H15S           43.3751562856       -5.2009781290       -2.3783038950  MEMB      268             0.0000000000
     30934       268  POPC      C216           43.5350351356       -3.0727176569       -1.9311112493  MEMB      268             0.0000000000
     30935       268  POPC      H16R           43.5573482062       -2.1065686922       -2.4791790682  MEMB      268             0.0000000000
     30936       268  POPC      H16S           44.3672776646       -3.0229592525       -1.1967965953  MEMB      268             0.0000000000
     30937       268  POPC      C217           42.2555378218       -3.0177848396       -1.0357865759  MEMB      268             0.0000000000
     30938       268  POPC      H17R           41.4282910292       -2.7602250565       -1.7312348091  MEMB      268             0.0000000000
     30939       268  POPC      H17S           42.4210194248       -2.1326306064       -0.3850647215  MEMB      268             0.0000000000
     30940       268  POPC      C218           41.8524247584       -4.2671534911       -0.2377779719  MEMB      268             0.0000000000
     30941       268  POPC      H18R           41.7252411788       -5.1815337392       -0.8558834123  MEMB      268             0.0000000000
     30942       268  POPC      H18S           40.9363215511       -4.1627937115        0.3820494121  MEMB      268             0.0000000000
     30943       268  POPC      H18T           42.7611493844       -4.5497179832        0.3355443130  MEMB      268             0.0000000000
     30944       268  POPC      C33            44.7533294900        2.2516006906      -11.4111532292  MEMB      268             0.0000000000
     30945       268  POPC      H3X            43.7447489789        2.4738720416      -11.0016637006  MEMB      268             0.0000000000
     30946       268  POPC      H3Y            45.1445043227        3.1744129611      -11.8904450361  MEMB      268             0.0000000000
     30947       268  POPC      C34            45.5950172627        1.8050980841      -10.2398029269  MEMB      268             0.0000000000
     30948       268  POPC      H4X            46.4515122809        1.1877800924      -10.5857161029  MEMB      268             0.0000000000
     30949       268  POPC      H4Y            44.8457812084        1.2752173175       -9.6135499408  MEMB      268             0.0000000000
     30950       268  POPC      C35            46.1185437167        2.9832310202       -9.4704678047  MEMB      268             0.0000000000
     30951       268  POPC      H5X            45.3134553646        3.6992644401       -9.1994506402  MEMB      268             0.0000000000
     30952       268  POPC      H5Y            46.8838100996        3.5397361655      -10.0526967600  MEMB      268             0.0000000000
     30953       268  POPC      C36            46.7400518761        2.5867095856       -8.1764138089  MEMB      268             0.0000000000
     30954       268  POPC      H6X            47.0903980753        3.4297427243       -7.5432674535  MEMB      268             0.0000000000
     30955       268  POPC      H6Y            47.5717030893        1.8856267832       -8.4026003285  MEMB      268             0.0000000000
     30956       268  POPC      C37            45.7806651357        1.9566795789       -7.0647744538  MEMB      268             0.0000000000
     30957       268  POPC      H7X            46.4360257467        1.8650046684       -6.1723512087  MEMB      268             0.0000000000
     30958       268  POPC      H7Y            45.5084831640        0.9565766552       -7.4648145630  MEMB      268             0.0000000000
     30959       268  POPC      C38            44.5815147624        2.8841169357       -6.6494087124  MEMB      268             0.0000000000
     30960       268  POPC      H8X            43.8630749843        3.1095273149       -7.4663263985  MEMB      268             0.0000000000
     30961       268  POPC      H8Y            44.9584166294        3.8381829891       -6.2227655912  MEMB      268             0.0000000000
     30962       268  POPC      C39            43.7861948888        2.2406015085       -5.5431221232  MEMB      268             0.0000000000
     30963       268  POPC      H9X            43.3339472601        1.3008513070       -5.9260869951  MEMB      268             0.0000000000
     30964       268  POPC      H9Y            42.9545537220        2.9363438348       -5.3009723969  MEMB      268             0.0000000000
     30965       268  POPC      C310           44.5516053828        1.9905680592       -4.3126548755  MEMB      268             0.0000000000
     30966       268  POPC      H10X           45.1245279320        2.9241166011       -4.1267313096  MEMB      268             0.0000000000
     30967       268  POPC      H10Y           45.3746876013        1.2561920330       -4.4451266850  MEMB      268             0.0000000000
     30968       268  POPC      C311           43.7524514157        1.6463591898       -3.0597420799  MEMB      268             0.0000000000
     30969       268  POPC      H11X           43.1682100825        0.7147898534       -3.2183665813  MEMB      268             0.0000000000
     30970       268  POPC      H11Y           43.0568171215        2.5098404716       -2.9903590027  MEMB      268             0.0000000000
     30971       268  POPC      C312           44.4917902486        1.4013852494       -1.7564822039  MEMB      268             0.0000000000
     30972       268  POPC      H12X           45.1733080153        2.2637495423       -1.5946734410  MEMB      268             0.0000000000
     30973       268  POPC      H12Y           45.1747656014        0.5283869856       -1.8322439768  MEMB      268             0.0000000000
     30974       268  POPC      C313           43.6139244123        1.3523160152       -0.5473168302  MEMB      268             0.0000000000
     30975       268  POPC      H13X           43.2298506100        0.3712581714       -0.1947076592  MEMB      268             0.0000000000
     30976       268  POPC      H13Y           42.8190936821        2.1139064315       -0.6974685381  MEMB      268             0.0000000000
     30977       268  POPC      C314           44.3132952181        1.9048603754        0.7141068993  MEMB      268             0.0000000000
     30978       268  POPC      H14X           44.4515779759        2.9903322600        0.5218830552  MEMB      268             0.0000000000
     30979       268  POPC      H14Y           45.3152576059        1.4536859780        0.8779201742  MEMB      268             0.0000000000
     30980       268  POPC      C315           43.4537566533        1.5571267244        2.0357933555  MEMB      268             0.0000000000
     30981       268  POPC      H15X           44.0000544163        1.9195233055        2.9327593240  MEMB      268             0.0000000000
     30982       268  POPC      H15Y           43.3634924080        0.4536762164        2.1283686635  MEMB      268             0.0000000000
     30983       268  POPC      C316           42.0205998373        1.9980762145        2.1170756897  MEMB      268             0.0000000000
     30984       268  POPC      H16X           41.3553000998        1.3333412270        1.5256146360  MEMB      268             0.0000000000
     30985       268  POPC      H16Y           42.0473948577        3.0843086112        1.8853368413  MEMB      268             0.0000000000
     30986       268  POPC      H16Z           41.7147511342        1.9960927792        3.1851453357  MEMB      268             0.0000000000
     30987       269  POPE      N             -25.0776545829      -33.2551721351      -20.6372724875  MEMB      269             0.0000000000
     30988       269  POPE      HN1           -25.2463161996      -32.2700125585      -20.9246982061  MEMB      269             0.0000000000
     30989       269  POPE      HN2           -24.5936215165      -33.8231799892      -21.3616198751  MEMB      269             0.0000000000
     30990       269  POPE      HN3           -25.9741870824      -33.7194836050      -20.3877839645  MEMB      269             0.0000000000
     30991       269  POPE      C12           -24.2387121735      -33.1593782891      -19.4145015713  MEMB      269             0.0000000000
     30992       269  POPE      H12A          -23.3460881984      -32.5319184572      -19.6238760356  MEMB      269             0.0000000000
     30993       269  POPE      H12B          -23.8903803157      -34.1559295441      -19.0682768433  MEMB      269             0.0000000000
     30994       269  POPE      C11           -25.0009432904      -32.3862486723      -18.2969068433  MEMB      269             0.0000000000
     30995       269  POPE      H11A          -24.0799018558      -32.1146268407      -17.7381356382  MEMB      269             0.0000000000
     30996       269  POPE      H11B          -25.6667593027      -33.0444593048      -17.6987691456  MEMB      269             0.0000000000
     30997       269  POPE      P             -24.9992363927      -29.8139358335      -18.8365351205  MEMB      269             0.0000000000
     30998       269  POPE      O13           -25.9654389482      -28.8194618414      -19.3138041907  MEMB      269             0.0000000000
     30999       269  POPE      O14           -23.6267918449      -29.9167494095      -19.4167792508  MEMB      269             0.0000000000
     31000       269  POPE      O11           -24.9324692143      -29.5133853042      -17.2001115136  MEMB      269             0.0000000000
     31001       269  POPE      O12           -25.6701847711      -31.2643621144      -18.8840890225  MEMB      269             0.0000000000
     31002       269  POPE      C1            -26.1868975688      -29.4494521267      -16.4794609026  MEMB      269             0.0000000000
     31003       269  POPE      HA            -26.7152230071      -30.4113526570      -16.6524947796  MEMB      269             0.0000000000
     31004       269  POPE      HB            -26.6095452534      -28.4625909171      -16.7654591072  MEMB      269             0.0000000000
     31005       269  POPE      C2            -25.8451116154      -29.4627630867      -14.9608233665  MEMB      269             0.0000000000
     31006       269  POPE      HS            -26.8190994654      -29.3043285839      -14.4503653388  MEMB      269             0.0000000000
     31007       269  POPE      O21           -24.9130216717      -28.3533149832      -14.7369368318  MEMB      269             0.0000000000
     31008       269  POPE      C21           -25.0823600084      -27.6883747662      -13.6083684830  MEMB      269             0.0000000000
     31009       269  POPE      O22           -25.8169648162      -27.9703913142      -12.7184807635  MEMB      269             0.0000000000
     31010       269  POPE      C22           -23.9924934515      -26.5412593809      -13.4072557034  MEMB      269             0.0000000000
     31011       269  POPE      H2R           -24.3070614497      -25.6352372239      -12.8464606707  MEMB      269             0.0000000000
     31012       269  POPE      H2S           -23.6185496364      -26.1798202708      -14.3890139307  MEMB      269             0.0000000000
     31013       269  POPE      C3            -25.2534706716      -30.8586477796      -14.6285423843  MEMB      269             0.0000000000
     31014       269  POPE      HX            -24.7280225023      -31.2822694592      -15.5110218742  MEMB      269             0.0000000000
     31015       269  POPE      HY            -26.2086802144      -31.3998064453      -14.4581229771  MEMB      269             0.0000000000
     31016       269  POPE      O31           -24.3307075465      -30.8314144490      -13.5154167694  MEMB      269             0.0000000000
     31017       269  POPE      C31           -24.4890261294      -31.8273083496      -12.6100405305  MEMB      269             0.0000000000
     31018       269  POPE      O32           -25.4288781749      -32.6397455540      -12.6109159223  MEMB      269             0.0000000000
     31019       269  POPE      C32           -23.3515228970      -31.8365089594      -11.6043776864  MEMB      269             0.0000000000
     31020       269  POPE      H2X           -22.9903850667      -30.7868667822      -11.5579903407  MEMB      269             0.0000000000
     31021       269  POPE      H2Y           -22.6264834232      -32.5733305553      -12.0114805082  MEMB      269             0.0000000000
     31022       269  POPE      C23           -22.6484853621      -27.0994261589      -12.8769934016  MEMB      269             0.0000000000
     31023       269  POPE      H3R           -21.9042729534      -26.3707794580      -13.2637012752  MEMB      269             0.0000000000
     31024       269  POPE      H3S           -22.3782413266      -28.0983569277      -13.2812533593  MEMB      269             0.0000000000
     31025       269  POPE      C24           -22.5304876071      -26.9925936098      -11.3299799190  MEMB      269             0.0000000000
     31026       269  POPE      H4R           -23.1165197175      -26.1112729026      -10.9921021805  MEMB      269             0.0000000000
     31027       269  POPE      H4S           -21.4705632416      -26.9341088210      -11.0021678353  MEMB      269             0.0000000000
     31028       269  POPE      C25           -23.1939776642      -28.1814505220      -10.6632261693  MEMB      269             0.0000000000
     31029       269  POPE      H5R           -22.3977598430      -28.9162711543      -10.4174681100  MEMB      269             0.0000000000
     31030       269  POPE      H5S           -23.8009658027      -28.6881065887      -11.4437296994  MEMB      269             0.0000000000
     31031       269  POPE      C26           -24.1662563762      -27.7928369263       -9.5435494709  MEMB      269             0.0000000000
     31032       269  POPE      H6R           -24.8719027368      -28.6180555913       -9.3081825974  MEMB      269             0.0000000000
     31033       269  POPE      H6S           -24.8982644875      -27.0414169173       -9.9094097454  MEMB      269             0.0000000000
     31034       269  POPE      C27           -23.5391417838      -27.3546343083       -8.3107089883  MEMB      269             0.0000000000
     31035       269  POPE      H7R           -24.1271395334      -26.5973226971       -7.7494078425  MEMB      269             0.0000000000
     31036       269  POPE      H7S           -22.7303955347      -26.6916077064       -8.6857365673  MEMB      269             0.0000000000
     31037       269  POPE      C28           -22.8302029193      -28.2921799916       -7.4217155741  MEMB      269             0.0000000000
     31038       269  POPE      H8R           -22.2673268081      -27.7510450131       -6.6313583349  MEMB      269             0.0000000000
     31039       269  POPE      H8S           -22.1183043276      -28.8456467279       -8.0707111748  MEMB      269             0.0000000000
     31040       269  POPE      C29           -23.7828493554      -29.3381263480       -6.8154580371  MEMB      269             0.0000000000
     31041       269  POPE      H91           -24.0385190308      -30.1576925855       -7.5031673986  MEMB      269             0.0000000000
     31042       269  POPE      C210          -24.4103032863      -29.3638011373       -5.5858541242  MEMB      269             0.0000000000
     31043       269  POPE      H101          -25.1605146250      -30.1491529047       -5.4114816395  MEMB      269             0.0000000000
     31044       269  POPE      C211          -24.3216538397      -28.3472558300       -4.5014023735  MEMB      269             0.0000000000
     31045       269  POPE      H11R          -25.2395049056      -28.3066915108       -3.8767230988  MEMB      269             0.0000000000
     31046       269  POPE      H11S          -24.4925894666      -27.3465918686       -4.9528156680  MEMB      269             0.0000000000
     31047       269  POPE      C212          -22.9857125746      -28.3493213011       -3.8454905131  MEMB      269             0.0000000000
     31048       269  POPE      H12R          -22.7436382370      -27.3994884440       -3.3224814023  MEMB      269             0.0000000000
     31049       269  POPE      H12S          -22.1498597130      -28.7009112295       -4.4874059724  MEMB      269             0.0000000000
     31050       269  POPE      C213          -22.9154142621      -29.5279053376       -2.8073073252  MEMB      269             0.0000000000
     31051       269  POPE      H13R          -21.8623369319      -29.8132695757       -2.5977475082  MEMB      269             0.0000000000
     31052       269  POPE      H13S          -23.4394364995      -30.4199312532       -3.2122913316  MEMB      269             0.0000000000
     31053       269  POPE      C214          -23.5751631678      -29.3216800142       -1.4321018728  MEMB      269             0.0000000000
     31054       269  POPE      H14R          -24.6469942653      -29.0702974593       -1.5814551211  MEMB      269             0.0000000000
     31055       269  POPE      H14S          -23.1669874401      -28.3371564980       -1.1183706859  MEMB      269             0.0000000000
     31056       269  POPE      C215          -23.2683429101      -30.3963952431       -0.4124420404  MEMB      269             0.0000000000
     31057       269  POPE      H15R          -22.2773943241      -30.3380318983        0.0864918780  MEMB      269             0.0000000000
     31058       269  POPE      H15S          -23.2414894860      -31.3002930900       -1.0578624162  MEMB      269             0.0000000000
     31059       269  POPE      C216          -24.3611259926      -30.7326139428        0.5848684678  MEMB      269             0.0000000000
     31060       269  POPE      H16R          -25.3078981654      -30.7658804676        0.0044930489  MEMB      269             0.0000000000
     31061       269  POPE      H16S          -24.5346899179      -29.9044490435        1.3048272474  MEMB      269             0.0000000000
     31062       269  POPE      C217          -24.2765379160      -32.1242615618        1.1259963460  MEMB      269             0.0000000000
     31063       269  POPE      H17R          -23.3980870677      -32.3999954525        1.7477816741  MEMB      269             0.0000000000
     31064       269  POPE      H17S          -24.1633435956      -32.8083460871        0.2579321899  MEMB      269             0.0000000000
     31065       269  POPE      C218          -25.4487803995      -32.4159170167        2.0448546645  MEMB      269             0.0000000000
     31066       269  POPE      H18R          -25.4165568239      -31.7675066520        2.9464343199  MEMB      269             0.0000000000
     31067       269  POPE      H18S          -25.3557490854      -33.4193889665        2.5125197449  MEMB      269             0.0000000000
     31068       269  POPE      H18T          -26.4757113127      -32.3476314973        1.6264385634  MEMB      269             0.0000000000
     31069       269  POPE      C33           -23.6191422869      -32.4112942193      -10.2038621974  MEMB      269             0.0000000000
     31070       269  POPE      H3X           -24.0509880292      -33.4349221454      -10.2078766057  MEMB      269             0.0000000000
     31071       269  POPE      H3Y           -24.1908977888      -31.6578770706       -9.6209564387  MEMB      269             0.0000000000
     31072       269  POPE      C34           -22.3061077863      -32.6535612316       -9.4604851853  MEMB      269             0.0000000000
     31073       269  POPE      H4X           -21.7351122941      -31.7077198696       -9.5773998534  MEMB      269             0.0000000000
     31074       269  POPE      H4Y           -21.7479530110      -33.4933400860       -9.9269135538  MEMB      269             0.0000000000
     31075       269  POPE      C35           -22.6426841994      -32.9880986203       -7.9840116953  MEMB      269             0.0000000000
     31076       269  POPE      H5X           -22.9868128700      -34.0436066406       -7.9415926906  MEMB      269             0.0000000000
     31077       269  POPE      H5Y           -23.4427190543      -32.4050714660       -7.4796856223  MEMB      269             0.0000000000
     31078       269  POPE      C36           -21.3700526823      -32.8415114813       -6.9950991615  MEMB      269             0.0000000000
     31079       269  POPE      H6X           -20.9563407231      -31.8207978595       -7.1410673786  MEMB      269             0.0000000000
     31080       269  POPE      H6Y           -20.5468797611      -33.4755810467       -7.3883711578  MEMB      269             0.0000000000
     31081       269  POPE      C37           -21.6666108226      -33.1214408155       -5.4889940480  MEMB      269             0.0000000000
     31082       269  POPE      H7X           -22.5153850316      -32.4984052316       -5.1344096998  MEMB      269             0.0000000000
     31083       269  POPE      H7Y           -20.7613840741      -32.7561400021       -4.9584834565  MEMB      269             0.0000000000
     31084       269  POPE      C38           -21.9709617276      -34.5528668315       -5.0696658374  MEMB      269             0.0000000000
     31085       269  POPE      H8X           -20.9398912657      -34.9383954004       -4.9193908195  MEMB      269             0.0000000000
     31086       269  POPE      H8Y           -22.5094380212      -35.1150752987       -5.8623109425  MEMB      269             0.0000000000
     31087       269  POPE      C39           -22.8754904046      -34.7331155763       -3.7986400215  MEMB      269             0.0000000000
     31088       269  POPE      H9X           -22.9889756503      -35.8225287481       -3.6125733477  MEMB      269             0.0000000000
     31089       269  POPE      H9Y           -23.9059497259      -34.3352739399       -3.9177898106  MEMB      269             0.0000000000
     31090       269  POPE      C310          -22.3293235449      -33.9530313102       -2.5760880634  MEMB      269             0.0000000000
     31091       269  POPE      H10X          -23.1641571583      -33.7682537577       -1.8666994872  MEMB      269             0.0000000000
     31092       269  POPE      H10Y          -21.9206206089      -32.9572457454       -2.8512133982  MEMB      269             0.0000000000
     31093       269  POPE      C311          -21.2929006391      -34.8489042929       -1.8384624203  MEMB      269             0.0000000000
     31094       269  POPE      H11X          -20.5316511874      -35.2240702918       -2.5554486953  MEMB      269             0.0000000000
     31095       269  POPE      H11Y          -21.8711847539      -35.7076533362       -1.4353998153  MEMB      269             0.0000000000
     31096       269  POPE      C312          -20.6581587461      -34.1029532674       -0.7669936776  MEMB      269             0.0000000000
     31097       269  POPE      H12X          -21.3383858239      -33.5765199739       -0.0638009883  MEMB      269             0.0000000000
     31098       269  POPE      H12Y          -20.0645239968      -33.3438176732       -1.3198331056  MEMB      269             0.0000000000
     31099       269  POPE      C313          -19.6926212977      -34.9794312485       -0.0050183044  MEMB      269             0.0000000000
     31100       269  POPE      H13X          -19.0408360001      -35.6179524673       -0.6388860198  MEMB      269             0.0000000000
     31101       269  POPE      H13Y          -20.1420634990      -35.7097230628        0.7013783500  MEMB      269             0.0000000000
     31102       269  POPE      C314          -18.7280505493      -34.0919799290        0.8038491123  MEMB      269             0.0000000000
     31103       269  POPE      H14X          -17.9122701324      -33.7732104676        0.1203214827  MEMB      269             0.0000000000
     31104       269  POPE      H14Y          -18.1083824725      -34.7758600674        1.4224284339  MEMB      269             0.0000000000
     31105       269  POPE      C315          -19.3431132047      -32.8506001385        1.5837473438  MEMB      269             0.0000000000
     31106       269  POPE      H15X          -19.8731756631      -32.2446139773        0.8181532887  MEMB      269             0.0000000000
     31107       269  POPE      H15Y          -18.5573998303      -32.2335796189        2.0698159202  MEMB      269             0.0000000000
     31108       269  POPE      C316          -20.3779536936      -33.2289804718        2.6281711563  MEMB      269             0.0000000000
     31109       269  POPE      H16X          -21.0438406466      -33.9413555557        2.0957835844  MEMB      269             0.0000000000
     31110       269  POPE      H16Y          -20.9242784010      -32.4071868423        3.1385684445  MEMB      269             0.0000000000
     31111       269  POPE      H16Z          -19.8208982942      -33.7480050298        3.4372596644  MEMB      269             0.0000000000
     31112       270  POPE      N             -36.6898880932      -12.4219592229      -20.2784288056  MEMB      270             0.0000000000
     31113       270  POPE      HN1           -36.1239076011      -13.2923071418      -20.2171054116  MEMB      270             0.0000000000
     31114       270  POPE      HN2           -36.1363858150      -11.7749379299      -20.8755875972  MEMB      270             0.0000000000
     31115       270  POPE      HN3           -36.7397787710      -11.8988757586      -19.3809352340  MEMB      270             0.0000000000
     31116       270  POPE      C12           -38.0028666047      -12.7424005686      -21.0214177080  MEMB      270             0.0000000000
     31117       270  POPE      H12A          -37.9656606469      -13.7517674606      -21.4841436005  MEMB      270             0.0000000000
     31118       270  POPE      H12B          -38.0982807298      -12.1020675133      -21.9242967344  MEMB      270             0.0000000000
     31119       270  POPE      C11           -39.2461513321      -12.5951585739      -20.1265410496  MEMB      270             0.0000000000
     31120       270  POPE      H11A          -40.1623097171      -12.4418576124      -20.7360275327  MEMB      270             0.0000000000
     31121       270  POPE      H11B          -39.1441184408      -11.6260391180      -19.5929515321  MEMB      270             0.0000000000
     31122       270  POPE      P             -40.5134196330      -13.7502030013      -18.1366922406  MEMB      270             0.0000000000
     31123       270  POPE      O13           -40.5539037108      -15.0717077709      -17.5968533548  MEMB      270             0.0000000000
     31124       270  POPE      O14           -41.6876626701      -13.0574848700      -18.6809620517  MEMB      270             0.0000000000
     31125       270  POPE      O11           -39.8990327125      -12.9106300836      -16.9852563649  MEMB      270             0.0000000000
     31126       270  POPE      O12           -39.3499312066      -13.6807598599      -19.1738484256  MEMB      270             0.0000000000
     31127       270  POPE      C1            -38.5361421077      -12.8161285013      -16.6457114102  MEMB      270             0.0000000000
     31128       270  POPE      HA            -38.4911893066      -12.0426851983      -15.8494163384  MEMB      270             0.0000000000
     31129       270  POPE      HB            -37.9107584850      -12.4940499600      -17.5056425525  MEMB      270             0.0000000000
     31130       270  POPE      C2            -37.9355332260      -14.0574500330      -15.8980738363  MEMB      270             0.0000000000
     31131       270  POPE      HS            -37.4814812150      -14.7169852854      -16.6682498019  MEMB      270             0.0000000000
     31132       270  POPE      O21           -39.0021916077      -14.6667542687      -15.1544979278  MEMB      270             0.0000000000
     31133       270  POPE      C21           -38.9767931536      -15.9289529534      -14.8101105754  MEMB      270             0.0000000000
     31134       270  POPE      O22           -38.0778351184      -16.7538094570      -15.0794593381  MEMB      270             0.0000000000
     31135       270  POPE      C22           -40.2010786761      -16.1417004107      -13.9202529570  MEMB      270             0.0000000000
     31136       270  POPE      H2R           -40.8815933824      -16.7650851410      -14.5388095477  MEMB      270             0.0000000000
     31137       270  POPE      H2S           -40.6904291418      -15.2133416946      -13.5555513370  MEMB      270             0.0000000000
     31138       270  POPE      C3            -36.8152317171      -13.6629362953      -14.8996111914  MEMB      270             0.0000000000
     31139       270  POPE      HX            -35.9196963528      -13.3604505349      -15.4834258824  MEMB      270             0.0000000000
     31140       270  POPE      HY            -36.5592988467      -14.6147019454      -14.3868135154  MEMB      270             0.0000000000
     31141       270  POPE      O31           -37.1851303110      -12.6737051633      -13.9679050671  MEMB      270             0.0000000000
     31142       270  POPE      C31           -36.9039230123      -12.7647680233      -12.6963153145  MEMB      270             0.0000000000
     31143       270  POPE      O32           -36.2034373465      -13.5750407733      -12.1098130868  MEMB      270             0.0000000000
     31144       270  POPE      C32           -37.6594081503      -11.6023725674      -11.9542661759  MEMB      270             0.0000000000
     31145       270  POPE      H2X           -38.1957220046      -10.9377821450      -12.6649055931  MEMB      270             0.0000000000
     31146       270  POPE      H2Y           -36.8976476280      -10.9975614954      -11.4173814107  MEMB      270             0.0000000000
     31147       270  POPE      C23           -39.7623897619      -17.0473890231      -12.7899033836  MEMB      270             0.0000000000
     31148       270  POPE      H3R           -38.8139655237      -16.6006720364      -12.4221309832  MEMB      270             0.0000000000
     31149       270  POPE      H3S           -39.4038811035      -18.0438567126      -13.1258272802  MEMB      270             0.0000000000
     31150       270  POPE      C24           -40.8141806932      -17.2555981539      -11.6899243789  MEMB      270             0.0000000000
     31151       270  POPE      H4R           -41.4261642858      -18.0472299792      -12.1727454683  MEMB      270             0.0000000000
     31152       270  POPE      H4S           -41.3535233125      -16.2991445415      -11.5207293950  MEMB      270             0.0000000000
     31153       270  POPE      C25           -40.2485381221      -17.8743781196      -10.4067223186  MEMB      270             0.0000000000
     31154       270  POPE      H5R           -39.6782316736      -18.7856438277      -10.6871971228  MEMB      270             0.0000000000
     31155       270  POPE      H5S           -41.1513295163      -18.1016481638       -9.8003916832  MEMB      270             0.0000000000
     31156       270  POPE      C26           -39.1936626629      -17.0053713687       -9.6840892359  MEMB      270             0.0000000000
     31157       270  POPE      H6R           -39.7073175250      -16.0538481757       -9.4289749604  MEMB      270             0.0000000000
     31158       270  POPE      H6S           -38.2624198655      -16.8797045161      -10.2768081358  MEMB      270             0.0000000000
     31159       270  POPE      C27           -38.7384741879      -17.5277200062       -8.3336348715  MEMB      270             0.0000000000
     31160       270  POPE      H7R           -38.5811480143      -18.6273718211       -8.3519437927  MEMB      270             0.0000000000
     31161       270  POPE      H7S           -39.6083359692      -17.4726376396       -7.6447023625  MEMB      270             0.0000000000
     31162       270  POPE      C28           -37.5487552179      -16.7195003052       -7.6566856984  MEMB      270             0.0000000000
     31163       270  POPE      H8R           -36.6248673883      -16.8975737431       -8.2474844709  MEMB      270             0.0000000000
     31164       270  POPE      H8S           -37.3833189549      -17.1674046117       -6.6535246039  MEMB      270             0.0000000000
     31165       270  POPE      C29           -37.7892274956      -15.1833920785       -7.4918628694  MEMB      270             0.0000000000
     31166       270  POPE      H91           -37.4901199355      -14.5268579363       -8.3222230806  MEMB      270             0.0000000000
     31167       270  POPE      C210          -38.4862717546      -14.6873496488       -6.4344131485  MEMB      270             0.0000000000
     31168       270  POPE      H101          -38.5515649868      -13.6012912702       -6.2725060013  MEMB      270             0.0000000000
     31169       270  POPE      C211          -39.0796474695      -15.4838495338       -5.3163465842  MEMB      270             0.0000000000
     31170       270  POPE      H11R          -38.8573162362      -16.5646796824       -5.4455594358  MEMB      270             0.0000000000
     31171       270  POPE      H11S          -40.1856338948      -15.4996461864       -5.4205837413  MEMB      270             0.0000000000
     31172       270  POPE      C212          -38.5199667964      -14.9232525097       -3.9786012395  MEMB      270             0.0000000000
     31173       270  POPE      H12R          -38.7393960238      -13.8351712754       -3.9311562523  MEMB      270             0.0000000000
     31174       270  POPE      H12S          -37.4298919014      -15.0355237069       -4.1615021651  MEMB      270             0.0000000000
     31175       270  POPE      C213          -38.9640905925      -15.6495622049       -2.6815245744  MEMB      270             0.0000000000
     31176       270  POPE      H13R          -39.1209356577      -16.7117224680       -2.9670705263  MEMB      270             0.0000000000
     31177       270  POPE      H13S          -40.0056258167      -15.3429083623       -2.4459641247  MEMB      270             0.0000000000
     31178       270  POPE      C214          -38.1841984177      -15.3708778943       -1.4140907630  MEMB      270             0.0000000000
     31179       270  POPE      H14R          -37.5249278858      -16.2191387899       -1.1310070165  MEMB      270             0.0000000000
     31180       270  POPE      H14S          -39.0420183669      -15.4669365347       -0.7146351248  MEMB      270             0.0000000000
     31181       270  POPE      C215          -37.5717139350      -14.0220836710       -1.1907726219  MEMB      270             0.0000000000
     31182       270  POPE      H15R          -36.8511856906      -13.8617798425       -2.0211125412  MEMB      270             0.0000000000
     31183       270  POPE      H15S          -37.1477507670      -14.1195391200       -0.1684829471  MEMB      270             0.0000000000
     31184       270  POPE      C216          -38.5161520077      -12.8463246494       -1.1759680571  MEMB      270             0.0000000000
     31185       270  POPE      H16R          -38.9282054033      -12.7529349352       -2.2034962335  MEMB      270             0.0000000000
     31186       270  POPE      H16S          -37.9117579051      -11.9291265178       -1.0093068431  MEMB      270             0.0000000000
     31187       270  POPE      C217          -39.5642686218      -12.7673167179        0.0161869669  MEMB      270             0.0000000000
     31188       270  POPE      H17R          -40.3684547118      -13.5276218732       -0.0814948827  MEMB      270             0.0000000000
     31189       270  POPE      H17S          -40.0310082603      -11.7654330188       -0.0965267625  MEMB      270             0.0000000000
     31190       270  POPE      C218          -38.9398497525      -12.9336150060        1.3783957444  MEMB      270             0.0000000000
     31191       270  POPE      H18R          -38.1447895290      -13.6794550071        1.5926913169  MEMB      270             0.0000000000
     31192       270  POPE      H18S          -39.8356149018      -13.1922279728        1.9825859269  MEMB      270             0.0000000000
     31193       270  POPE      H18T          -38.5725244511      -11.9238960459        1.6609927637  MEMB      270             0.0000000000
     31194       270  POPE      C33           -38.6388038880      -12.0801257234      -10.9284679566  MEMB      270             0.0000000000
     31195       270  POPE      H3X           -39.0859632621      -11.2053052057      -10.4097594110  MEMB      270             0.0000000000
     31196       270  POPE      H3Y           -38.1115798615      -12.6687699652      -10.1475368652  MEMB      270             0.0000000000
     31197       270  POPE      C34           -39.7959433474      -12.9412335623      -11.3926502129  MEMB      270             0.0000000000
     31198       270  POPE      H4X           -40.2117965752      -13.4371427860      -10.4896213069  MEMB      270             0.0000000000
     31199       270  POPE      H4Y           -39.4872304912      -13.6931651392      -12.1500249429  MEMB      270             0.0000000000
     31200       270  POPE      C35           -40.8836106527      -12.1640287012      -12.0930927854  MEMB      270             0.0000000000
     31201       270  POPE      H5X           -41.4697074978      -12.9636821192      -12.5944564208  MEMB      270             0.0000000000
     31202       270  POPE      H5Y           -40.4099985232      -11.5580672867      -12.8948550897  MEMB      270             0.0000000000
     31203       270  POPE      C36           -41.7651270517      -11.3305322380      -11.2234765971  MEMB      270             0.0000000000
     31204       270  POPE      H6X           -42.3869971015      -10.6343918017      -11.8259608058  MEMB      270             0.0000000000
     31205       270  POPE      H6Y           -41.1752202471      -10.6773867265      -10.5454411790  MEMB      270             0.0000000000
     31206       270  POPE      C37           -42.7221319057      -12.1549213279      -10.3178271205  MEMB      270             0.0000000000
     31207       270  POPE      H7X           -42.2089162164      -12.8412875998       -9.6108397165  MEMB      270             0.0000000000
     31208       270  POPE      H7Y           -43.3164951706      -12.7589664265      -11.0362863192  MEMB      270             0.0000000000
     31209       270  POPE      C38           -43.7107258608      -11.2237854405       -9.5708157178  MEMB      270             0.0000000000
     31210       270  POPE      H8X           -44.3776558062      -10.6668972943      -10.2632038655  MEMB      270             0.0000000000
     31211       270  POPE      H8Y           -43.1103673091      -10.5714101824       -8.9012659636  MEMB      270             0.0000000000
     31212       270  POPE      C39           -44.6985921113      -11.9707707596       -8.6939593050  MEMB      270             0.0000000000
     31213       270  POPE      H9X           -45.4736101490      -12.5063149953       -9.2829084795  MEMB      270             0.0000000000
     31214       270  POPE      H9Y           -45.2216421131      -11.2368739755       -8.0442406075  MEMB      270             0.0000000000
     31215       270  POPE      C310          -44.2229148438      -13.0018100031       -7.6356295925  MEMB      270             0.0000000000
     31216       270  POPE      H10X          -43.7670778841      -13.9320494747       -8.0371112455  MEMB      270             0.0000000000
     31217       270  POPE      H10Y          -45.1205686927      -13.3638845645       -7.0902472618  MEMB      270             0.0000000000
     31218       270  POPE      C311          -43.1927616543      -12.6008739382       -6.5776135723  MEMB      270             0.0000000000
     31219       270  POPE      H11X          -43.4047393949      -11.6657230722       -6.0164729128  MEMB      270             0.0000000000
     31220       270  POPE      H11Y          -42.2608099221      -12.3134863566       -7.1097744404  MEMB      270             0.0000000000
     31221       270  POPE      C312          -42.6485180409      -13.6631926959       -5.5958732855  MEMB      270             0.0000000000
     31222       270  POPE      H12X          -41.7584869747      -13.3186550381       -5.0271375990  MEMB      270             0.0000000000
     31223       270  POPE      H12Y          -42.2817509579      -14.5238417266       -6.1951110548  MEMB      270             0.0000000000
     31224       270  POPE      C313          -43.5927692376      -13.9974077025       -4.4736031983  MEMB      270             0.0000000000
     31225       270  POPE      H13X          -44.5489200464      -14.3737877230       -4.8960193413  MEMB      270             0.0000000000
     31226       270  POPE      H13Y          -43.8495850441      -13.0574572025       -3.9398811223  MEMB      270             0.0000000000
     31227       270  POPE      C314          -43.1317724809      -15.0986381540       -3.4681495028  MEMB      270             0.0000000000
     31228       270  POPE      H14X          -42.1476445827      -14.8144772958       -3.0379560502  MEMB      270             0.0000000000
     31229       270  POPE      H14Y          -43.1198123756      -16.1168088594       -3.9125662763  MEMB      270             0.0000000000
     31230       270  POPE      C315          -43.9755153491      -15.2714429974       -2.2014954390  MEMB      270             0.0000000000
     31231       270  POPE      H15X          -44.9427453339      -15.7854096933       -2.3875740303  MEMB      270             0.0000000000
     31232       270  POPE      H15Y          -44.4215923405      -14.2682059646       -2.0316381111  MEMB      270             0.0000000000
     31233       270  POPE      C316          -43.2261929217      -15.7450283224       -0.9851006594  MEMB      270             0.0000000000
     31234       270  POPE      H16X          -43.8069975147      -16.3166799420       -0.2299833219  MEMB      270             0.0000000000
     31235       270  POPE      H16Y          -42.6314503893      -14.9212238752       -0.5357137713  MEMB      270             0.0000000000
     31236       270  POPE      H16Z          -42.6493905019      -16.6007756050       -1.3965816042  MEMB      270             0.0000000000
     31237       271  POPE      N              33.1033681125      -25.5562956896      -18.7584863714  MEMB      271             0.0000000000
     31238       271  POPE      HN1            34.0542538944      -25.7889617762      -19.1096029926  MEMB      271             0.0000000000
     31239       271  POPE      HN2            32.3991070715      -25.3640426551      -19.4991989825  MEMB      271             0.0000000000
     31240       271  POPE      HN3            33.1459208434      -24.8155769126      -18.0297031457  MEMB      271             0.0000000000
     31241       271  POPE      C12            32.5353883074      -26.7154892612      -18.0418814773  MEMB      271             0.0000000000
     31242       271  POPE      H12A           31.7585543835      -26.3250405910      -17.3502168282  MEMB      271             0.0000000000
     31243       271  POPE      H12B           33.4391381796      -27.0781373825      -17.5070510315  MEMB      271             0.0000000000
     31244       271  POPE      C11            32.0340527353      -27.8203559178      -19.0140167410  MEMB      271             0.0000000000
     31245       271  POPE      H11A           32.0105605820      -28.7841890316      -18.4619344859  MEMB      271             0.0000000000
     31246       271  POPE      H11B           32.8129560650      -27.8988014268      -19.8023549135  MEMB      271             0.0000000000
     31247       271  POPE      P              29.3893664027      -28.2705890347      -19.2513709283  MEMB      271             0.0000000000
     31248       271  POPE      O13            28.9591113102      -28.9589136367      -20.5251397802  MEMB      271             0.0000000000
     31249       271  POPE      O14            28.4600942474      -27.2906738547      -18.5961290748  MEMB      271             0.0000000000
     31250       271  POPE      O11            29.8544781574      -29.3483329998      -18.2263813443  MEMB      271             0.0000000000
     31251       271  POPE      O12            30.7860407022      -27.5009487870      -19.5865942866  MEMB      271             0.0000000000
     31252       271  POPE      C1             28.9632929528      -30.2393183452      -17.7035327792  MEMB      271             0.0000000000
     31253       271  POPE      HA             28.9293184722      -31.1394499390      -18.3538634816  MEMB      271             0.0000000000
     31254       271  POPE      HB             27.8923536120      -29.9462461477      -17.7425031192  MEMB      271             0.0000000000
     31255       271  POPE      C2             29.2401995571      -30.4459631352      -16.1502196799  MEMB      271             0.0000000000
     31256       271  POPE      HS             28.4845091827      -31.0296573683      -15.5822811775  MEMB      271             0.0000000000
     31257       271  POPE      O21            29.3997111181      -29.1840195934      -15.5650295056  MEMB      271             0.0000000000
     31258       271  POPE      C21            29.4276174997      -29.0447116818      -14.2093119071  MEMB      271             0.0000000000
     31259       271  POPE      O22            29.0521119763      -29.8422683422      -13.4505287654  MEMB      271             0.0000000000
     31260       271  POPE      C22            29.9143596653      -27.6157899897      -13.8122534158  MEMB      271             0.0000000000
     31261       271  POPE      H2R            29.0731643344      -27.0568824085      -13.3492916495  MEMB      271             0.0000000000
     31262       271  POPE      H2S            30.3410109829      -27.0700071506      -14.6808218251  MEMB      271             0.0000000000
     31263       271  POPE      C3             30.5515800519      -31.2657919965      -15.9157347575  MEMB      271             0.0000000000
     31264       271  POPE      HX             31.3476695866      -30.7779579510      -16.5178814354  MEMB      271             0.0000000000
     31265       271  POPE      HY             30.5724385006      -32.3188018553      -16.2693676628  MEMB      271             0.0000000000
     31266       271  POPE      O31            31.0430676140      -31.3581825127      -14.5840006152  MEMB      271             0.0000000000
     31267       271  POPE      C31            32.3322816010      -31.4481538872      -14.3742167989  MEMB      271             0.0000000000
     31268       271  POPE      O32            33.1656848076      -31.4505697037      -15.2310873475  MEMB      271             0.0000000000
     31269       271  POPE      C32            32.5930600776      -31.5611681646      -12.9098941284  MEMB      271             0.0000000000
     31270       271  POPE      H2X            32.6826697794      -32.6405784068      -12.6625798060  MEMB      271             0.0000000000
     31271       271  POPE      H2Y            31.7420399030      -31.0058777255      -12.4607411860  MEMB      271             0.0000000000
     31272       271  POPE      C23            30.9627402938      -27.7749887274      -12.7062594637  MEMB      271             0.0000000000
     31273       271  POPE      H3R            31.7731814844      -28.4170522036      -13.1127823275  MEMB      271             0.0000000000
     31274       271  POPE      H3S            30.5293086570      -28.3103912947      -11.8345933768  MEMB      271             0.0000000000
     31275       271  POPE      C24            31.4907804807      -26.4778610094      -12.1576451938  MEMB      271             0.0000000000
     31276       271  POPE      H4R            30.6254854763      -25.8261078662      -11.9110616722  MEMB      271             0.0000000000
     31277       271  POPE      H4S            32.0048427505      -26.0130883787      -13.0260040473  MEMB      271             0.0000000000
     31278       271  POPE      C25            32.4301983530      -26.8696724686      -10.9973952848  MEMB      271             0.0000000000
     31279       271  POPE      H5R            33.2482092650      -27.4445582868      -11.4818385019  MEMB      271             0.0000000000
     31280       271  POPE      H5S            31.9310480526      -27.6259286389      -10.3545524979  MEMB      271             0.0000000000
     31281       271  POPE      C26            32.9078701893      -25.6354769480      -10.2759175115  MEMB      271             0.0000000000
     31282       271  POPE      H6R            31.9879015685      -25.1007390497       -9.9564899228  MEMB      271             0.0000000000
     31283       271  POPE      H6S            33.5469940237      -24.9487718640      -10.8711300663  MEMB      271             0.0000000000
     31284       271  POPE      C27            33.7731208494      -25.8607070482       -9.0246225658  MEMB      271             0.0000000000
     31285       271  POPE      H7R            34.7222800121      -26.3740152174       -9.2890699095  MEMB      271             0.0000000000
     31286       271  POPE      H7S            33.3107033328      -26.6443451592       -8.3871254614  MEMB      271             0.0000000000
     31287       271  POPE      C28            34.1256452489      -24.4673157999       -8.3178760390  MEMB      271             0.0000000000
     31288       271  POPE      H8R            34.6958428923      -23.8327918537       -9.0296165788  MEMB      271             0.0000000000
     31289       271  POPE      H8S            34.7266680214      -24.8894312536       -7.4842626316  MEMB      271             0.0000000000
     31290       271  POPE      C29            33.0010046025      -23.6034425861       -7.9226730972  MEMB      271             0.0000000000
     31291       271  POPE      H91            32.6313782828      -22.9771726072       -8.7479988505  MEMB      271             0.0000000000
     31292       271  POPE      C210           32.4956472666      -23.3857554133       -6.7021097123  MEMB      271             0.0000000000
     31293       271  POPE      H101           31.7406433858      -22.5965478806       -6.5712641700  MEMB      271             0.0000000000
     31294       271  POPE      C211           32.9145255616      -23.9302030346       -5.3892332174  MEMB      271             0.0000000000
     31295       271  POPE      H11R           32.9065221028      -23.1697515619       -4.5793131944  MEMB      271             0.0000000000
     31296       271  POPE      H11S           33.9797478507      -24.2347442379       -5.4721618680  MEMB      271             0.0000000000
     31297       271  POPE      C212           32.2227209045      -25.2969274599       -5.0137334398  MEMB      271             0.0000000000
     31298       271  POPE      H12R           32.9048890144      -25.6779243961       -4.2239176115  MEMB      271             0.0000000000
     31299       271  POPE      H12S           32.3743869073      -26.0344768261       -5.8306414346  MEMB      271             0.0000000000
     31300       271  POPE      C213           30.7475113204      -25.4104091769       -4.4947256019  MEMB      271             0.0000000000
     31301       271  POPE      H13R           30.0632835903      -24.9378725216       -5.2315175364  MEMB      271             0.0000000000
     31302       271  POPE      H13S           30.6638464556      -24.9992281090       -3.4660124664  MEMB      271             0.0000000000
     31303       271  POPE      C214           30.3224009464      -26.9179762406       -4.4135141157  MEMB      271             0.0000000000
     31304       271  POPE      H14R           30.4059956873      -27.3064407580       -5.4510249055  MEMB      271             0.0000000000
     31305       271  POPE      H14S           29.2284515748      -26.9211974609       -4.2196443623  MEMB      271             0.0000000000
     31306       271  POPE      C215           31.1102798876      -27.6518031156       -3.3305909708  MEMB      271             0.0000000000
     31307       271  POPE      H15R           31.4648726186      -26.9373590604       -2.5571856514  MEMB      271             0.0000000000
     31308       271  POPE      H15S           31.9108342859      -28.3079987206       -3.7341263296  MEMB      271             0.0000000000
     31309       271  POPE      C216           30.2944925230      -28.8893063400       -2.6532818354  MEMB      271             0.0000000000
     31310       271  POPE      H16R           29.9886380616      -29.6377136527       -3.4152923036  MEMB      271             0.0000000000
     31311       271  POPE      H16S           29.3870106316      -28.6032183899       -2.0797390111  MEMB      271             0.0000000000
     31312       271  POPE      C217           31.1297459682      -29.6900964747       -1.6018885975  MEMB      271             0.0000000000
     31313       271  POPE      H17R           31.9601689143      -30.1818780303       -2.1522240890  MEMB      271             0.0000000000
     31314       271  POPE      H17S           30.5894071937      -30.5561176743       -1.1632979848  MEMB      271             0.0000000000
     31315       271  POPE      C218           31.8299320711      -29.0136106712       -0.4511917459  MEMB      271             0.0000000000
     31316       271  POPE      H18R           32.1335760372      -29.7757088472        0.2980264828  MEMB      271             0.0000000000
     31317       271  POPE      H18S           31.1807406701      -28.3242784237        0.1299217270  MEMB      271             0.0000000000
     31318       271  POPE      H18T           32.7314056369      -28.4455361088       -0.7657674841  MEMB      271             0.0000000000
     31319       271  POPE      C33            33.8807259620      -30.9038345807      -12.4360764381  MEMB      271             0.0000000000
     31320       271  POPE      H3X            33.9110000809      -29.8204722707      -12.6804743157  MEMB      271             0.0000000000
     31321       271  POPE      H3Y            34.8278748691      -31.3147454086      -12.8464215167  MEMB      271             0.0000000000
     31322       271  POPE      C34            33.8997010754      -30.9861741094      -10.8784947105  MEMB      271             0.0000000000
     31323       271  POPE      H4X            33.8261917026      -32.0538420113      -10.5801613783  MEMB      271             0.0000000000
     31324       271  POPE      H4Y            32.9915945224      -30.4635991876      -10.5089288999  MEMB      271             0.0000000000
     31325       271  POPE      C35            35.1741869835      -30.2976060957      -10.3221441817  MEMB      271             0.0000000000
     31326       271  POPE      H5X            35.0962589776      -29.2362150340      -10.6410432590  MEMB      271             0.0000000000
     31327       271  POPE      H5Y            36.0188087481      -30.9112931080      -10.7020442293  MEMB      271             0.0000000000
     31328       271  POPE      C36            35.3340519705      -30.3795995270       -8.7694473113  MEMB      271             0.0000000000
     31329       271  POPE      H6X            36.4135916924      -30.3122875355       -8.5157057454  MEMB      271             0.0000000000
     31330       271  POPE      H6Y            34.8622353774      -31.3494757515       -8.5028944137  MEMB      271             0.0000000000
     31331       271  POPE      C37            34.6019071564      -29.2333172859       -7.9661008760  MEMB      271             0.0000000000
     31332       271  POPE      H7X            33.5532788474      -29.0078452606       -8.2556906559  MEMB      271             0.0000000000
     31333       271  POPE      H7Y            35.3271224180      -28.4022897887       -8.0994315558  MEMB      271             0.0000000000
     31334       271  POPE      C38            34.4279783345      -29.6776735427       -6.4410373784  MEMB      271             0.0000000000
     31335       271  POPE      H8X            34.1819818326      -30.7595826426       -6.3837716112  MEMB      271             0.0000000000
     31336       271  POPE      H8Y            33.5977156050      -29.0604484865       -6.0360462230  MEMB      271             0.0000000000
     31337       271  POPE      C39            35.6351189953      -29.4516598799       -5.5451123578  MEMB      271             0.0000000000
     31338       271  POPE      H9X            36.4377625715      -29.8640596666       -6.1931946326  MEMB      271             0.0000000000
     31339       271  POPE      H9Y            35.5095019820      -30.1951292664       -4.7291500547  MEMB      271             0.0000000000
     31340       271  POPE      C310           35.9116539604      -28.0436455074       -5.0081770568  MEMB      271             0.0000000000
     31341       271  POPE      H10X           35.8917751179      -27.3212157157       -5.8519903320  MEMB      271             0.0000000000
     31342       271  POPE      H10Y           36.9580679926      -28.0997850603       -4.6391411995  MEMB      271             0.0000000000
     31343       271  POPE      C311           35.0233790277      -27.5364024701       -3.8571945923  MEMB      271             0.0000000000
     31344       271  POPE      H11X           34.0570278603      -28.0328651695       -4.0895982101  MEMB      271             0.0000000000
     31345       271  POPE      H11Y           34.8373220017      -26.4587945398       -4.0533194327  MEMB      271             0.0000000000
     31346       271  POPE      C312           35.5876932895      -27.6434204014       -2.4356492259  MEMB      271             0.0000000000
     31347       271  POPE      H12X           36.6801001215      -27.4439952423       -2.4702536856  MEMB      271             0.0000000000
     31348       271  POPE      H12Y           35.5361867421      -28.6713285098       -2.0172320529  MEMB      271             0.0000000000
     31349       271  POPE      C313           34.9399317105      -26.6281218498       -1.5219207736  MEMB      271             0.0000000000
     31350       271  POPE      H13X           33.8424797661      -26.7892940644       -1.4591192619  MEMB      271             0.0000000000
     31351       271  POPE      H13Y           35.0826544799      -25.5767639839       -1.8514622399  MEMB      271             0.0000000000
     31352       271  POPE      C314           35.5107840902      -26.7457175359       -0.0512631515  MEMB      271             0.0000000000
     31353       271  POPE      H14X           35.2814909851      -25.8199524646        0.5185658902  MEMB      271             0.0000000000
     31354       271  POPE      H14Y           36.5893077998      -26.8167113212       -0.3082995764  MEMB      271             0.0000000000
     31355       271  POPE      C315           35.0922408491      -27.9593981745        0.7870170728  MEMB      271             0.0000000000
     31356       271  POPE      H15X           35.1527665898      -28.9234414046        0.2381280334  MEMB      271             0.0000000000
     31357       271  POPE      H15Y           34.0130028972      -27.9397752478        1.0500403363  MEMB      271             0.0000000000
     31358       271  POPE      C316           36.0481328422      -28.0280211159        2.0579251211  MEMB      271             0.0000000000
     31359       271  POPE      H16X           36.0326388082      -27.1500780396        2.7385842890  MEMB      271             0.0000000000
     31360       271  POPE      H16Y           37.1042962566      -28.1126438137        1.7237419568  MEMB      271             0.0000000000
     31361       271  POPE      H16Z           35.7801774433      -28.8656320709        2.7368425220  MEMB      271             0.0000000000
     31362       272  POPC      N             -43.3970189401       -4.2962943279      -20.6746720852  MEMB      272             0.0000000000
     31363       272  POPC      C12           -43.3248286041       -4.0321677099      -19.2109771956  MEMB      272             0.0000000000
     31364       272  POPC      H12A          -44.1597519616       -4.6332740489      -18.8823828641  MEMB      272             0.0000000000
     31365       272  POPC      H12B          -43.4799294627       -2.9671242003      -19.1213887805  MEMB      272             0.0000000000
     31366       272  POPC      C13           -43.3190346665       -5.7922930289      -20.7797625303  MEMB      272             0.0000000000
     31367       272  POPC      H13A          -44.0770111927       -6.3676750711      -20.2690697455  MEMB      272             0.0000000000
     31368       272  POPC      H13B          -43.3521397662       -6.1529847183      -21.7972130646  MEMB      272             0.0000000000
     31369       272  POPC      H13C          -42.3650812376       -6.0815021387      -20.3641533868  MEMB      272             0.0000000000
     31370       272  POPC      C14           -44.7422923235       -3.9806348896      -21.3072230672  MEMB      272             0.0000000000
     31371       272  POPC      H14A          -44.7861843679       -4.5064304496      -22.2495672392  MEMB      272             0.0000000000
     31372       272  POPC      H14B          -45.5198375239       -4.4917854263      -20.7589997477  MEMB      272             0.0000000000
     31373       272  POPC      H14C          -44.9168122957       -2.9181002292      -21.3906675977  MEMB      272             0.0000000000
     31374       272  POPC      C15           -42.2767018394       -3.6122448232      -21.3591529138  MEMB      272             0.0000000000
     31375       272  POPC      H15A          -41.3670049004       -4.1331287026      -21.0992846413  MEMB      272             0.0000000000
     31376       272  POPC      H15B          -42.1403451859       -2.6180954901      -20.9598107741  MEMB      272             0.0000000000
     31377       272  POPC      H15C          -42.2831841665       -3.5781005574      -22.4385933658  MEMB      272             0.0000000000
     31378       272  POPC      C11           -42.1704234828       -4.4219723694      -18.2881297458  MEMB      272             0.0000000000
     31379       272  POPC      H11A          -42.2674163202       -4.1327095037      -17.2198412199  MEMB      272             0.0000000000
     31380       272  POPC      H11B          -41.3102825627       -3.8362099090      -18.6771810811  MEMB      272             0.0000000000
     31381       272  POPC      P             -42.2587740159       -6.8147133613      -17.4717212148  MEMB      272             0.0000000000
     31382       272  POPC      O13           -41.5766957152       -6.6534220150      -16.1740617617  MEMB      272             0.0000000000
     31383       272  POPC      O14           -42.2348126549       -8.2027186063      -18.0354197623  MEMB      272             0.0000000000
     31384       272  POPC      O12           -41.7422571089       -5.7759527336      -18.5092957583  MEMB      272             0.0000000000
     31385       272  POPC      O11           -43.7715552490       -6.4606330443      -17.1895839653  MEMB      272             0.0000000000
     31386       272  POPC      C1            -44.5841345540       -6.7105078899      -16.0369943282  MEMB      272             0.0000000000
     31387       272  POPC      HA            -43.9598552091       -7.2630552366      -15.3026321623  MEMB      272             0.0000000000
     31388       272  POPC      HB            -45.4531425193       -7.3557580630      -16.2875902019  MEMB      272             0.0000000000
     31389       272  POPC      C2            -45.1327221633       -5.3996772670      -15.4932531650  MEMB      272             0.0000000000
     31390       272  POPC      HS            -45.8257019776       -4.8830106115      -16.1912186720  MEMB      272             0.0000000000
     31391       272  POPC      O21           -43.9867384644       -4.5858773642      -15.1685547332  MEMB      272             0.0000000000
     31392       272  POPC      C21           -44.2243151385       -3.2725766121      -14.8399778996  MEMB      272             0.0000000000
     31393       272  POPC      O22           -45.2543199819       -2.6763222712      -14.9473986350  MEMB      272             0.0000000000
     31394       272  POPC      C22           -42.8804163439       -2.5922011380      -14.5970728915  MEMB      272             0.0000000000
     31395       272  POPC      H2R           -42.7659798828       -1.5967839655      -15.0770419755  MEMB      272             0.0000000000
     31396       272  POPC      H2S           -42.0607211636       -3.3170223698      -14.7895693261  MEMB      272             0.0000000000
     31397       272  POPC      C3            -45.8885053858       -5.7363385032      -14.1865744912  MEMB      272             0.0000000000
     31398       272  POPC      HX            -46.8212034931       -6.3330229966      -14.2780219310  MEMB      272             0.0000000000
     31399       272  POPC      HY            -46.2746393513       -4.8143466421      -13.7016491263  MEMB      272             0.0000000000
     31400       272  POPC      O31           -44.9501170908       -6.3888558061      -13.3093825790  MEMB      272             0.0000000000
     31401       272  POPC      C31           -45.4062886874       -6.7150906066      -12.1399759970  MEMB      272             0.0000000000
     31402       272  POPC      O32           -46.5492780056       -6.5802649148      -11.7564132593  MEMB      272             0.0000000000
     31403       272  POPC      C32           -44.2678405754       -7.3085425088      -11.2898918041  MEMB      272             0.0000000000
     31404       272  POPC      H2X           -43.5826845861       -6.5672898424      -10.8257509256  MEMB      272             0.0000000000
     31405       272  POPC      H2Y           -43.6164117302       -7.9380114285      -11.9331102466  MEMB      272             0.0000000000
     31406       272  POPC      C23           -42.8355341854       -2.4267322684      -13.0483345752  MEMB      272             0.0000000000
     31407       272  POPC      H3R           -43.8308064082       -2.1443529745      -12.6433457056  MEMB      272             0.0000000000
     31408       272  POPC      H3S           -42.3137796221       -1.4623820843      -12.8691089782  MEMB      272             0.0000000000
     31409       272  POPC      C24           -42.2162283698       -3.5219465253      -12.2594409024  MEMB      272             0.0000000000
     31410       272  POPC      H4R           -41.2109110944       -3.7001681946      -12.6974993691  MEMB      272             0.0000000000
     31411       272  POPC      H4S           -42.8979308535       -4.3901520731      -12.3852265536  MEMB      272             0.0000000000
     31412       272  POPC      C25           -41.9686607996       -3.2590070245      -10.7561526117  MEMB      272             0.0000000000
     31413       272  POPC      H5R           -41.3876987211       -2.3218449241      -10.6200237799  MEMB      272             0.0000000000
     31414       272  POPC      H5S           -41.3708719043       -4.0844963400      -10.3139573633  MEMB      272             0.0000000000
     31415       272  POPC      C26           -43.3016880428       -3.0934011642       -9.9339847108  MEMB      272             0.0000000000
     31416       272  POPC      H6R           -44.0109081317       -3.8636988118      -10.3054269509  MEMB      272             0.0000000000
     31417       272  POPC      H6S           -43.7528649099       -2.1068873750      -10.1738828736  MEMB      272             0.0000000000
     31418       272  POPC      C27           -43.2194486384       -3.2538727574       -8.4518881453  MEMB      272             0.0000000000
     31419       272  POPC      H7R           -42.3801125539       -2.5937461800       -8.1451814538  MEMB      272             0.0000000000
     31420       272  POPC      H7S           -42.8503946632       -4.2956158913       -8.3383488486  MEMB      272             0.0000000000
     31421       272  POPC      C28           -44.4910970405       -3.0640590123       -7.5987846804  MEMB      272             0.0000000000
     31422       272  POPC      H8R           -44.9014365330       -2.0342411935       -7.6723880204  MEMB      272             0.0000000000
     31423       272  POPC      H8S           -44.0992416709       -3.0574439002       -6.5592048700  MEMB      272             0.0000000000
     31424       272  POPC      C29           -45.4965770723       -4.1281861455       -7.8404480484  MEMB      272             0.0000000000
     31425       272  POPC      H91           -45.6505325988       -4.3387853720       -8.9090667031  MEMB      272             0.0000000000
     31426       272  POPC      C210          -46.2209834107       -4.8748753114       -6.9307194950  MEMB      272             0.0000000000
     31427       272  POPC      H101          -46.8100000182       -5.6525417411       -7.4389460765  MEMB      272             0.0000000000
     31428       272  POPC      C211          -46.1862016768       -4.7729415045       -5.4639875422  MEMB      272             0.0000000000
     31429       272  POPC      H11R          -46.1311390458       -3.7568087947       -5.0181591410  MEMB      272             0.0000000000
     31430       272  POPC      H11S          -45.3240030069       -5.3468458235       -5.0620320189  MEMB      272             0.0000000000
     31431       272  POPC      C212          -47.4297174602       -5.2851963382       -4.8355880451  MEMB      272             0.0000000000
     31432       272  POPC      H12R          -47.3723746930       -6.3764979710       -5.0358217228  MEMB      272             0.0000000000
     31433       272  POPC      H12S          -48.3459660636       -4.9679506717       -5.3779566727  MEMB      272             0.0000000000
     31434       272  POPC      C213          -47.4807916375       -4.9995075181       -3.3423813570  MEMB      272             0.0000000000
     31435       272  POPC      H13R          -48.4982351313       -5.2785580237       -2.9941549772  MEMB      272             0.0000000000
     31436       272  POPC      H13S          -47.3177629129       -3.9112230484       -3.1894778534  MEMB      272             0.0000000000
     31437       272  POPC      C214          -46.4637719621       -5.7165844220       -2.3992039365  MEMB      272             0.0000000000
     31438       272  POPC      H14R          -46.4866197391       -5.3120676458       -1.3647175441  MEMB      272             0.0000000000
     31439       272  POPC      H14S          -45.4587988903       -5.5775903617       -2.8520075846  MEMB      272             0.0000000000
     31440       272  POPC      C215          -46.7353529687       -7.2328687819       -2.2742059617  MEMB      272             0.0000000000
     31441       272  POPC      H15R          -47.0627703211       -7.6021332115       -3.2695751474  MEMB      272             0.0000000000
     31442       272  POPC      H15S          -47.6376940338       -7.3299693503       -1.6333667280  MEMB      272             0.0000000000
     31443       272  POPC      C216          -45.6903645817       -8.1326375265       -1.5843480073  MEMB      272             0.0000000000
     31444       272  POPC      H16R          -44.8835322213       -8.2628595820       -2.3369330820  MEMB      272             0.0000000000
     31445       272  POPC      H16S          -46.1493881467       -9.1236210004       -1.3804621000  MEMB      272             0.0000000000
     31446       272  POPC      C217          -45.0840560262       -7.7373748042       -0.2274330922  MEMB      272             0.0000000000
     31447       272  POPC      H17R          -45.8024954059       -7.5455794515        0.5980251526  MEMB      272             0.0000000000
     31448       272  POPC      H17S          -44.4191426592       -6.8503215389       -0.3005604146  MEMB      272             0.0000000000
     31449       272  POPC      C218          -44.1621237685       -8.9119678287        0.2588451543  MEMB      272             0.0000000000
     31450       272  POPC      H18R          -43.3243531267       -9.0761865631       -0.4521371842  MEMB      272             0.0000000000
     31451       272  POPC      H18S          -44.7967272712       -9.8229059575        0.3011704258  MEMB      272             0.0000000000
     31452       272  POPC      H18T          -43.6386430112       -8.5600728730        1.1734251851  MEMB      272             0.0000000000
     31453       272  POPC      C33           -44.7136159777       -8.3138219226      -10.1547005131  MEMB      272             0.0000000000
     31454       272  POPC      H3X           -43.8658447205       -8.9426510513       -9.8080316775  MEMB      272             0.0000000000
     31455       272  POPC      H3Y           -45.3318603781       -9.0924579582      -10.6505035727  MEMB      272             0.0000000000
     31456       272  POPC      C34           -45.5736291117       -7.6376909072       -9.0861395303  MEMB      272             0.0000000000
     31457       272  POPC      H4X           -46.4445890196       -7.1537409632       -9.5776093624  MEMB      272             0.0000000000
     31458       272  POPC      H4Y           -44.9857054611       -6.8245198720       -8.6092538310  MEMB      272             0.0000000000
     31459       272  POPC      C35           -46.0182343274       -8.5243824241       -7.8880621167  MEMB      272             0.0000000000
     31460       272  POPC      H5X           -46.9866554994       -9.0431964075       -8.0533302021  MEMB      272             0.0000000000
     31461       272  POPC      H5Y           -46.2121051190       -8.0250020170       -6.9147416245  MEMB      272             0.0000000000
     31462       272  POPC      C36           -44.9361010099       -9.5627261817       -7.4527536355  MEMB      272             0.0000000000
     31463       272  POPC      H6X           -44.7394996611      -10.3315153508       -8.2303348285  MEMB      272             0.0000000000
     31464       272  POPC      H6Y           -45.2806786765      -10.1235226527       -6.5577148712  MEMB      272             0.0000000000
     31465       272  POPC      C37           -43.6203667020       -8.9250870431       -7.0654369719  MEMB      272             0.0000000000
     31466       272  POPC      H7X           -43.1727628424       -8.2823020713       -7.8533446204  MEMB      272             0.0000000000
     31467       272  POPC      H7Y           -42.8936148762       -9.7493306787       -6.9018054660  MEMB      272             0.0000000000
     31468       272  POPC      C38           -43.7619680737       -8.0734254887       -5.7926935202  MEMB      272             0.0000000000
     31469       272  POPC      H8X           -44.2880533892       -8.7354180194       -5.0720540522  MEMB      272             0.0000000000
     31470       272  POPC      H8Y           -44.2022307249       -7.0795801783       -6.0223912832  MEMB      272             0.0000000000
     31471       272  POPC      C39           -42.4176271896       -7.7758303532       -5.0751919675  MEMB      272             0.0000000000
     31472       272  POPC      H9X           -41.7164265674       -8.6371356977       -5.0470524503  MEMB      272             0.0000000000
     31473       272  POPC      H9Y           -42.7644945684       -7.4140233399       -4.0836777737  MEMB      272             0.0000000000
     31474       272  POPC      C310          -41.6589094834       -6.5718120668       -5.7205977694  MEMB      272             0.0000000000
     31475       272  POPC      H10X          -42.3884265955       -5.7356169294       -5.7744812368  MEMB      272             0.0000000000
     31476       272  POPC      H10Y          -41.4531899072       -6.6355689720       -6.8105228453  MEMB      272             0.0000000000
     31477       272  POPC      C311          -40.3974515646       -6.1139649933       -5.0388106592  MEMB      272             0.0000000000
     31478       272  POPC      H11X          -39.4941164205       -5.8964671278       -5.6479095658  MEMB      272             0.0000000000
     31479       272  POPC      H11Y          -40.0834436731       -6.8897576422       -4.3081493645  MEMB      272             0.0000000000
     31480       272  POPC      C312          -40.6253805075       -4.7579730685       -4.2787578706  MEMB      272             0.0000000000
     31481       272  POPC      H12X          -40.9899407739       -4.1076171116       -5.1024413470  MEMB      272             0.0000000000
     31482       272  POPC      H12Y          -39.5945495735       -4.4387850180       -4.0145086530  MEMB      272             0.0000000000
     31483       272  POPC      C313          -41.5334343084       -4.9381518620       -3.0515378115  MEMB      272             0.0000000000
     31484       272  POPC      H13X          -41.1993926171       -5.9296101421       -2.6777097902  MEMB      272             0.0000000000
     31485       272  POPC      H13Y          -42.5984524481       -5.1244759407       -3.3071568933  MEMB      272             0.0000000000
     31486       272  POPC      C314          -41.3501842676       -3.7838909498       -1.9942252933  MEMB      272             0.0000000000
     31487       272  POPC      H14X          -41.9454053772       -2.9148400391       -2.3474719856  MEMB      272             0.0000000000
     31488       272  POPC      H14Y          -40.2991282137       -3.4505809219       -1.8581861618  MEMB      272             0.0000000000
     31489       272  POPC      C315          -41.9610207451       -4.0682396998       -0.6127850534  MEMB      272             0.0000000000
     31490       272  POPC      H15X          -43.0642339446       -4.1700983844       -0.6956469003  MEMB      272             0.0000000000
     31491       272  POPC      H15Y          -41.8971884362       -3.1923006642        0.0676395083  MEMB      272             0.0000000000
     31492       272  POPC      C316          -41.2355051429       -5.2466680071        0.1601881754  MEMB      272             0.0000000000
     31493       272  POPC      H16X          -40.1768278402       -4.9272200180        0.2673123309  MEMB      272             0.0000000000
     31494       272  POPC      H16Y          -41.2607037769       -6.2035629286       -0.4037601740  MEMB      272             0.0000000000
     31495       272  POPC      H16Z          -41.6017447137       -5.3498301621        1.2040026067  MEMB      272             0.0000000000
     31496       273  POPC      N              -4.5665987445       44.1852572399      -19.9885805665  MEMB      273             0.0000000000
     31497       273  POPC      C12            -4.3986101907       45.6476316590      -19.5209235804  MEMB      273             0.0000000000
     31498       273  POPC      H12A           -4.9085971081       46.1994382534      -20.2966960347  MEMB      273             0.0000000000
     31499       273  POPC      H12B           -3.3509356497       45.8402709734      -19.6988792100  MEMB      273             0.0000000000
     31500       273  POPC      C13            -5.9755432240       43.7126463358      -20.0072574781  MEMB      273             0.0000000000
     31501       273  POPC      H13A           -6.0983740859       42.6725230486      -20.2708030019  MEMB      273             0.0000000000
     31502       273  POPC      H13B           -6.3225399416       43.8688688660      -18.9965212728  MEMB      273             0.0000000000
     31503       273  POPC      H13C           -6.5519628649       44.3159044122      -20.6929833641  MEMB      273             0.0000000000
     31504       273  POPC      C14            -4.0198121390       44.0248721356      -21.3706620232  MEMB      273             0.0000000000
     31505       273  POPC      H14A           -2.9498238902       44.1714382693      -21.3772725765  MEMB      273             0.0000000000
     31506       273  POPC      H14B           -4.2345605097       42.9984955507      -21.6291856774  MEMB      273             0.0000000000
     31507       273  POPC      H14C           -4.5560836893       44.6929923534      -22.0282548193  MEMB      273             0.0000000000
     31508       273  POPC      C15            -3.8193797067       43.2991577277      -19.0226395250  MEMB      273             0.0000000000
     31509       273  POPC      H15A           -4.4969852537       43.3309960431      -18.1822604799  MEMB      273             0.0000000000
     31510       273  POPC      H15B           -2.8353123086       43.7207534251      -18.8802719491  MEMB      273             0.0000000000
     31511       273  POPC      H15C           -3.7124091228       42.2998173456      -19.4179570631  MEMB      273             0.0000000000
     31512       273  POPC      C11            -4.9025327166       46.0334595075      -18.1961157415  MEMB      273             0.0000000000
     31513       273  POPC      H11A           -4.5315956051       47.0640080438      -18.0098460943  MEMB      273             0.0000000000
     31514       273  POPC      H11B           -4.4454747595       45.3818643021      -17.4209752970  MEMB      273             0.0000000000
     31515       273  POPC      P              -7.1949786726       47.2816817907      -18.2440923985  MEMB      273             0.0000000000
     31516       273  POPC      O13            -7.4080451405       47.2199226171      -19.6875234947  MEMB      273             0.0000000000
     31517       273  POPC      O14            -6.5464338734       48.5052429800      -17.6813111020  MEMB      273             0.0000000000
     31518       273  POPC      O12            -6.3150615633       46.0577215816      -17.9210083737  MEMB      273             0.0000000000
     31519       273  POPC      O11            -8.4810895540       46.9445644875      -17.3598857163  MEMB      273             0.0000000000
     31520       273  POPC      C1             -8.8540261954       45.6373451112      -16.9995640356  MEMB      273             0.0000000000
     31521       273  POPC      HA             -8.3213910920       44.8463548631      -17.5696126240  MEMB      273             0.0000000000
     31522       273  POPC      HB             -9.9111286356       45.5214763196      -17.3211689801  MEMB      273             0.0000000000
     31523       273  POPC      C2             -8.6939636566       45.4467119835      -15.4482063432  MEMB      273             0.0000000000
     31524       273  POPC      HS             -9.4986775069       45.9833273597      -14.9015797529  MEMB      273             0.0000000000
     31525       273  POPC      O21            -7.3643404452       45.9818146648      -15.1561437936  MEMB      273             0.0000000000
     31526       273  POPC      C21            -7.2168151346       47.1416435928      -14.6748090224  MEMB      273             0.0000000000
     31527       273  POPC      O22            -8.1262287803       47.9578419842      -14.4416182936  MEMB      273             0.0000000000
     31528       273  POPC      C22            -5.7505903317       47.4936092709      -14.3290610833  MEMB      273             0.0000000000
     31529       273  POPC      H2R            -5.6794848225       48.6022557729      -14.3420054565  MEMB      273             0.0000000000
     31530       273  POPC      H2S            -5.0082814957       47.0332476010      -15.0156218691  MEMB      273             0.0000000000
     31531       273  POPC      C3             -8.7643959435       43.9330243495      -14.9623307995  MEMB      273             0.0000000000
     31532       273  POPC      HX             -8.2179082624       43.3671995254      -15.7468779749  MEMB      273             0.0000000000
     31533       273  POPC      HY             -9.8521249811       43.7184091704      -14.8908687784  MEMB      273             0.0000000000
     31534       273  POPC      O31            -8.0992161375       43.7429967007      -13.6988760814  MEMB      273             0.0000000000
     31535       273  POPC      C31            -8.6691622885       42.8691574749      -12.8179809193  MEMB      273             0.0000000000
     31536       273  POPC      O32            -9.6647527016       42.2781087986      -13.0254221369  MEMB      273             0.0000000000
     31537       273  POPC      C32            -7.7606269651       42.8602878550      -11.5761556387  MEMB      273             0.0000000000
     31538       273  POPC      H2X            -8.4234796629       42.7002832852      -10.6990319730  MEMB      273             0.0000000000
     31539       273  POPC      H2Y            -7.2419387303       43.8221564030      -11.3759242357  MEMB      273             0.0000000000
     31540       273  POPC      C23            -5.3638853616       46.8138178062      -13.0063798413  MEMB      273             0.0000000000
     31541       273  POPC      H3R            -4.2935696893       47.0017657554      -12.7752496539  MEMB      273             0.0000000000
     31542       273  POPC      H3S            -5.5985299425       45.7379860696      -13.1541937881  MEMB      273             0.0000000000
     31543       273  POPC      C24            -6.1568626521       47.2128797301      -11.7667900442  MEMB      273             0.0000000000
     31544       273  POPC      H4R            -7.1550823530       46.7251621369      -11.7699488657  MEMB      273             0.0000000000
     31545       273  POPC      H4S            -6.2491588833       48.3159544179      -11.8618101792  MEMB      273             0.0000000000
     31546       273  POPC      C25            -5.5835011556       46.9973266918      -10.4298082636  MEMB      273             0.0000000000
     31547       273  POPC      H5R            -4.6124305406       47.5201698237      -10.2957269783  MEMB      273             0.0000000000
     31548       273  POPC      H5S            -5.2107876873       45.9963434854      -10.1241306880  MEMB      273             0.0000000000
     31549       273  POPC      C26            -6.5838521354       47.4047175548       -9.3186340732  MEMB      273             0.0000000000
     31550       273  POPC      H6R            -7.0020172552       48.3981412224       -9.5880202833  MEMB      273             0.0000000000
     31551       273  POPC      H6S            -5.9319283278       47.6126897636       -8.4433833313  MEMB      273             0.0000000000
     31552       273  POPC      C27            -7.6493353344       46.3086429288       -9.0365596787  MEMB      273             0.0000000000
     31553       273  POPC      H7R            -7.1490244060       45.3183052486       -9.0934919510  MEMB      273             0.0000000000
     31554       273  POPC      H7S            -8.4626658288       46.3773227025       -9.7902818427  MEMB      273             0.0000000000
     31555       273  POPC      C28            -8.3724703356       46.4038530150       -7.6796553683  MEMB      273             0.0000000000
     31556       273  POPC      H8R            -9.1258749836       45.5938565706       -7.5766586665  MEMB      273             0.0000000000
     31557       273  POPC      H8S            -8.8487108767       47.4073906089       -7.7003542989  MEMB      273             0.0000000000
     31558       273  POPC      C29            -7.3303905529       46.3242326896       -6.5395648954  MEMB      273             0.0000000000
     31559       273  POPC      H91            -6.6566905750       45.4549550049       -6.5615779410  MEMB      273             0.0000000000
     31560       273  POPC      C210           -7.1458620143       47.2499338092       -5.5848958427  MEMB      273             0.0000000000
     31561       273  POPC      H101           -6.2884163221       47.1048759209       -4.9112904512  MEMB      273             0.0000000000
     31562       273  POPC      C211           -7.9427853776       48.5595614342       -5.3761162078  MEMB      273             0.0000000000
     31563       273  POPC      H11R           -8.3512308335       48.9431931719       -6.3354493204  MEMB      273             0.0000000000
     31564       273  POPC      H11S           -7.2838749785       49.3906678890       -5.0453293733  MEMB      273             0.0000000000
     31565       273  POPC      C212           -9.2060525733       48.3695071972       -4.6436882688  MEMB      273             0.0000000000
     31566       273  POPC      H12R           -9.7052062313       47.5689706247       -5.2304655690  MEMB      273             0.0000000000
     31567       273  POPC      H12S           -9.8233073048       49.2806185067       -4.7959849082  MEMB      273             0.0000000000
     31568       273  POPC      C213           -9.1803430748       48.0001254248       -3.1015085998  MEMB      273             0.0000000000
     31569       273  POPC      H13R           -8.6011211208       48.7360143305       -2.5037709425  MEMB      273             0.0000000000
     31570       273  POPC      H13S           -8.6288213275       47.0690173773       -2.8501475889  MEMB      273             0.0000000000
     31571       273  POPC      C214          -10.6933712487       47.9217600969       -2.7801406067  MEMB      273             0.0000000000
     31572       273  POPC      H14R          -11.1391140718       47.1777198334       -3.4744308920  MEMB      273             0.0000000000
     31573       273  POPC      H14S          -11.0583605399       48.9522182641       -2.9782826387  MEMB      273             0.0000000000
     31574       273  POPC      C215          -11.1339269285       47.5109695320       -1.3881636699  MEMB      273             0.0000000000
     31575       273  POPC      H15R          -11.2301157740       46.4067689440       -1.3119416348  MEMB      273             0.0000000000
     31576       273  POPC      H15S          -12.1297230225       47.9590375858       -1.1833577632  MEMB      273             0.0000000000
     31577       273  POPC      C216          -10.1584199128       47.9133473785       -0.3065145868  MEMB      273             0.0000000000
     31578       273  POPC      H16R          -10.1102646619       49.0202575420       -0.3886861892  MEMB      273             0.0000000000
     31579       273  POPC      H16S           -9.1520112478       47.4492156981       -0.3842607917  MEMB      273             0.0000000000
     31580       273  POPC      C217          -10.4554300763       47.6922567595        1.2134889092  MEMB      273             0.0000000000
     31581       273  POPC      H17R          -11.4571542076       48.1286659134        1.4145274328  MEMB      273             0.0000000000
     31582       273  POPC      H17S           -9.6413209889       48.3052700329        1.6559390244  MEMB      273             0.0000000000
     31583       273  POPC      C218          -10.3270802860       46.1885116756        1.7036621340  MEMB      273             0.0000000000
     31584       273  POPC      H18R          -10.1941439604       46.0972097194        2.8028953284  MEMB      273             0.0000000000
     31585       273  POPC      H18S           -9.3449836326       45.9182222798        1.2600968854  MEMB      273             0.0000000000
     31586       273  POPC      H18T          -10.9506224257       45.3247728492        1.3882711259  MEMB      273             0.0000000000
     31587       273  POPC      C33            -6.8613575427       41.7436205763      -11.7089575489  MEMB      273             0.0000000000
     31588       273  POPC      H3X            -6.1724397033       41.9831701349      -12.5470087453  MEMB      273             0.0000000000
     31589       273  POPC      H3Y            -7.4628109428       40.8277840410      -11.8928541588  MEMB      273             0.0000000000
     31590       273  POPC      C34            -5.9544430545       41.5037472146      -10.5109919943  MEMB      273             0.0000000000
     31591       273  POPC      H4X            -5.4861306880       40.5068744594      -10.6567621941  MEMB      273             0.0000000000
     31592       273  POPC      H4Y            -6.6432402605       41.4686527403       -9.6399877521  MEMB      273             0.0000000000
     31593       273  POPC      C35            -4.8161969495       42.5622559818      -10.2700998334  MEMB      273             0.0000000000
     31594       273  POPC      H5X            -5.2949163748       43.5594989681      -10.1668770861  MEMB      273             0.0000000000
     31595       273  POPC      H5Y            -4.1932597162       42.6708483131      -11.1835977650  MEMB      273             0.0000000000
     31596       273  POPC      C36            -3.9523467740       42.3374641057       -9.0209060707  MEMB      273             0.0000000000
     31597       273  POPC      H6X            -3.2136480424       43.1673018540       -9.0247404773  MEMB      273             0.0000000000
     31598       273  POPC      H6Y            -3.4771375198       41.3414170881       -9.1489181754  MEMB      273             0.0000000000
     31599       273  POPC      C37            -4.6954732673       42.5094935165       -7.6596603209  MEMB      273             0.0000000000
     31600       273  POPC      H7X            -5.4317257357       41.6974676686       -7.4783677565  MEMB      273             0.0000000000
     31601       273  POPC      H7Y            -5.2052533714       43.4946574298       -7.7220911400  MEMB      273             0.0000000000
     31602       273  POPC      C38            -3.7981549490       42.2427626226       -6.4004720450  MEMB      273             0.0000000000
     31603       273  POPC      H8X            -3.2669927440       41.2970527695       -6.6409317462  MEMB      273             0.0000000000
     31604       273  POPC      H8Y            -4.5416097204       42.0890004788       -5.5893297046  MEMB      273             0.0000000000
     31605       273  POPC      C39            -2.7843525693       43.3304258611       -6.0442288904  MEMB      273             0.0000000000
     31606       273  POPC      H9X            -2.0264370256       43.3735138312       -6.8554179287  MEMB      273             0.0000000000
     31607       273  POPC      H9Y            -2.2301897325       43.0623368562       -5.1193761845  MEMB      273             0.0000000000
     31608       273  POPC      C310           -3.4753596476       44.6507085922       -5.8440261123  MEMB      273             0.0000000000
     31609       273  POPC      H10X           -4.1416842328       44.7945236540       -6.7213222429  MEMB      273             0.0000000000
     31610       273  POPC      H10Y           -2.6860554414       45.4308451175       -5.8960557252  MEMB      273             0.0000000000
     31611       273  POPC      C311           -4.1900718654       45.0258995243       -4.5158273914  MEMB      273             0.0000000000
     31612       273  POPC      H11X           -4.5581513539       46.0565202762       -4.7072939357  MEMB      273             0.0000000000
     31613       273  POPC      H11Y           -3.4850078345       44.8791725764       -3.6698504914  MEMB      273             0.0000000000
     31614       273  POPC      C312           -5.3867471800       44.0931457014       -4.0152508115  MEMB      273             0.0000000000
     31615       273  POPC      H12X           -4.9650290846       43.1127587457       -3.7065171007  MEMB      273             0.0000000000
     31616       273  POPC      H12Y           -6.0162138789       43.8982099437       -4.9097297141  MEMB      273             0.0000000000
     31617       273  POPC      C313           -6.3045247991       44.5949026513       -2.8359908944  MEMB      273             0.0000000000
     31618       273  POPC      H13X           -7.1709700518       43.9013502499       -2.7852098670  MEMB      273             0.0000000000
     31619       273  POPC      H13Y           -6.6574587839       45.6346960451       -3.0050721336  MEMB      273             0.0000000000
     31620       273  POPC      C314           -5.5714166253       44.7296233718       -1.4624141172  MEMB      273             0.0000000000
     31621       273  POPC      H14X           -4.4823937732       44.9419797052       -1.5194683594  MEMB      273             0.0000000000
     31622       273  POPC      H14Y           -5.5507174180       43.6788119822       -1.1022927212  MEMB      273             0.0000000000
     31623       273  POPC      C315           -6.2211204871       45.7320374586       -0.5552757075  MEMB      273             0.0000000000
     31624       273  POPC      H15X           -7.3200926643       45.7666226008       -0.7146020021  MEMB      273             0.0000000000
     31625       273  POPC      H15Y           -5.8981567649       46.7338194595       -0.9108716540  MEMB      273             0.0000000000
     31626       273  POPC      C316           -5.8059650182       45.6691373601        0.9035627916  MEMB      273             0.0000000000
     31627       273  POPC      H16X           -6.2113892117       44.7345320487        1.3468071470  MEMB      273             0.0000000000
     31628       273  POPC      H16Y           -6.2658160535       46.5574697711        1.3870124730  MEMB      273             0.0000000000
     31629       273  POPC      H16Z           -4.7051799189       45.6281494883        1.0481764332  MEMB      273             0.0000000000
     31630       274  POPE      N              44.5027021233       24.1868461515      -19.7356906740  MEMB      274             0.0000000000
     31631       274  POPE      HN1            44.0891180739       23.9345382828      -20.6559564200  MEMB      274             0.0000000000
     31632       274  POPE      HN2            44.9657294003       25.1153093967      -19.6638448850  MEMB      274             0.0000000000
     31633       274  POPE      HN3            45.3694778974       23.6401147336      -19.5585338812  MEMB      274             0.0000000000
     31634       274  POPE      C12            43.5536027527       24.0424689361      -18.5521975452  MEMB      274             0.0000000000
     31635       274  POPE      H12A           42.5753032070       24.4758791927      -18.8512069692  MEMB      274             0.0000000000
     31636       274  POPE      H12B           44.0310469770       24.5732965584      -17.7009689800  MEMB      274             0.0000000000
     31637       274  POPE      C11            43.2416707293       22.6356917382      -18.3004296990  MEMB      274             0.0000000000
     31638       274  POPE      H11A           42.9478698287       22.4069043205      -17.2536926783  MEMB      274             0.0000000000
     31639       274  POPE      H11B           44.2168438044       22.1047684692      -18.3388865861  MEMB      274             0.0000000000
     31640       274  POPE      P              41.9678376219       20.5404056311      -19.0950105529  MEMB      274             0.0000000000
     31641       274  POPE      O13            42.7442977282       19.9247252985      -17.9758913464  MEMB      274             0.0000000000
     31642       274  POPE      O14            42.1020981872       19.8981259477      -20.4914373664  MEMB      274             0.0000000000
     31643       274  POPE      O11            40.4417010027       20.4530487164      -18.5943866984  MEMB      274             0.0000000000
     31644       274  POPE      O12            42.2643546520       22.0908731826      -19.2549561154  MEMB      274             0.0000000000
     31645       274  POPE      C1             39.4710525325       21.4178656152      -18.7435771102  MEMB      274             0.0000000000
     31646       274  POPE      HA             38.5583073149       21.0347058471      -19.2479637260  MEMB      274             0.0000000000
     31647       274  POPE      HB             39.9585796468       22.2595132865      -19.2804825139  MEMB      274             0.0000000000
     31648       274  POPE      C2             38.9963807753       21.9994910773      -17.3953885622  MEMB      274             0.0000000000
     31649       274  POPE      HS             38.2127742666       22.7511598031      -17.6304969036  MEMB      274             0.0000000000
     31650       274  POPE      O21            40.0846175088       22.5968253234      -16.6892001993  MEMB      274             0.0000000000
     31651       274  POPE      C21            39.7482051469       23.5466239438      -15.8188168302  MEMB      274             0.0000000000
     31652       274  POPE      O22            38.5680046716       23.8149516844      -15.5329622726  MEMB      274             0.0000000000
     31653       274  POPE      C22            40.9966711086       24.2107816372      -15.2795165854  MEMB      274             0.0000000000
     31654       274  POPE      H2R            40.6147078444       25.0820611539      -14.7056721098  MEMB      274             0.0000000000
     31655       274  POPE      H2S            41.5628153563       24.4569513444      -16.2032060418  MEMB      274             0.0000000000
     31656       274  POPE      C3             38.3524893125       20.9643197507      -16.4736295640  MEMB      274             0.0000000000
     31657       274  POPE      HX             37.5441910838       20.3814802565      -16.9648253980  MEMB      274             0.0000000000
     31658       274  POPE      HY             37.8663640369       21.5895830975      -15.6944959656  MEMB      274             0.0000000000
     31659       274  POPE      O31            39.3687677822       20.0729384968      -15.9041627681  MEMB      274             0.0000000000
     31660       274  POPE      C31            39.4810222751       19.9948173670      -14.5628489184  MEMB      274             0.0000000000
     31661       274  POPE      O32            39.0535499190       20.7755713773      -13.7253708049  MEMB      274             0.0000000000
     31662       274  POPE      C32            40.4765999241       18.9659883398      -14.1127340619  MEMB      274             0.0000000000
     31663       274  POPE      H2X            40.4848341732       18.0318296367      -14.7140663690  MEMB      274             0.0000000000
     31664       274  POPE      H2Y            40.3223979803       18.6581405712      -13.0564326998  MEMB      274             0.0000000000
     31665       274  POPE      C23            41.7935744237       23.3130449769      -14.3816843948  MEMB      274             0.0000000000
     31666       274  POPE      H3R            42.2171585307       22.3946668850      -14.8415528629  MEMB      274             0.0000000000
     31667       274  POPE      H3S            41.0483582766       22.9680459385      -13.6333865493  MEMB      274             0.0000000000
     31668       274  POPE      C24            42.9040406500       24.0453315458      -13.6763220827  MEMB      274             0.0000000000
     31669       274  POPE      H4R            42.6114176930       25.0781341975      -13.3899454139  MEMB      274             0.0000000000
     31670       274  POPE      H4S            43.7548177027       24.1801722648      -14.3779752350  MEMB      274             0.0000000000
     31671       274  POPE      C25            43.4880171600       23.4210535981      -12.3319662306  MEMB      274             0.0000000000
     31672       274  POPE      H5R            43.5836619232       22.3449701089      -12.5912289813  MEMB      274             0.0000000000
     31673       274  POPE      H5S            42.7107992309       23.3785999464      -11.5392170571  MEMB      274             0.0000000000
     31674       274  POPE      C26            44.8439438210       23.9545979320      -11.8058995349  MEMB      274             0.0000000000
     31675       274  POPE      H6R            44.6771703370       24.9395000533      -11.3196125958  MEMB      274             0.0000000000
     31676       274  POPE      H6S            45.5543185700       24.1317357160      -12.6415497023  MEMB      274             0.0000000000
     31677       274  POPE      C27            45.5575339092       22.8487284582      -10.9528491140  MEMB      274             0.0000000000
     31678       274  POPE      H7R            46.6647765616       22.9323468406      -10.9162070535  MEMB      274             0.0000000000
     31679       274  POPE      H7S            45.4454471712       21.8825356730      -11.4897194404  MEMB      274             0.0000000000
     31680       274  POPE      C28            44.9164823861       22.5558282615       -9.6087119079  MEMB      274             0.0000000000
     31681       274  POPE      H8R            45.5173514593       21.7314306440       -9.1686592178  MEMB      274             0.0000000000
     31682       274  POPE      H8S            43.9253741232       22.0609444752       -9.6930649033  MEMB      274             0.0000000000
     31683       274  POPE      C29            44.8947625043       23.8081062163       -8.6721338580  MEMB      274             0.0000000000
     31684       274  POPE      H91            45.3183203140       24.7225645364       -9.1130019402  MEMB      274             0.0000000000
     31685       274  POPE      C210           44.3951208675       23.8471807182       -7.4369834055  MEMB      274             0.0000000000
     31686       274  POPE      H101           44.3929134178       24.8408737647       -6.9652111315  MEMB      274             0.0000000000
     31687       274  POPE      C211           43.7745951143       22.6776929563       -6.6706309151  MEMB      274             0.0000000000
     31688       274  POPE      H11R           44.4906425132       22.2874952963       -5.9160821103  MEMB      274             0.0000000000
     31689       274  POPE      H11S           43.6151482483       21.8062782987       -7.3411030011  MEMB      274             0.0000000000
     31690       274  POPE      C212           42.4691519155       23.1094987932       -6.0287777240  MEMB      274             0.0000000000
     31691       274  POPE      H12R           41.8684506647       23.6086573255       -6.8189173233  MEMB      274             0.0000000000
     31692       274  POPE      H12S           42.7970770692       23.8884136341       -5.3076145105  MEMB      274             0.0000000000
     31693       274  POPE      C213           41.8274417752       21.8298856211       -5.4075199886  MEMB      274             0.0000000000
     31694       274  POPE      H13R           42.5716351537       21.2250744829       -4.8465381308  MEMB      274             0.0000000000
     31695       274  POPE      H13S           41.5427558910       21.1982049350       -6.2759984569  MEMB      274             0.0000000000
     31696       274  POPE      C214           40.4948193056       22.1223964940       -4.6789635272  MEMB      274             0.0000000000
     31697       274  POPE      H14R           39.8738660586       21.2011278859       -4.6774362225  MEMB      274             0.0000000000
     31698       274  POPE      H14S           39.8726201376       22.9011450663       -5.1696163470  MEMB      274             0.0000000000
     31699       274  POPE      C215           40.7154679182       22.5706226866       -3.2567779716  MEMB      274             0.0000000000
     31700       274  POPE      H15R           39.7884054617       22.9348002298       -2.7645873925  MEMB      274             0.0000000000
     31701       274  POPE      H15S           41.3928781802       23.4490933364       -3.1957384439  MEMB      274             0.0000000000
     31702       274  POPE      C216           41.2499833960       21.5525420264       -2.2285690989  MEMB      274             0.0000000000
     31703       274  POPE      H16R           42.0851094891       20.9604209407       -2.6601685770  MEMB      274             0.0000000000
     31704       274  POPE      H16S           40.4984220729       20.8305384907       -1.8436172635  MEMB      274             0.0000000000
     31705       274  POPE      C217           41.9335620046       22.2000976034       -1.0977057349  MEMB      274             0.0000000000
     31706       274  POPE      H17R           41.0813739111       22.7662415746       -0.6646035804  MEMB      274             0.0000000000
     31707       274  POPE      H17S           42.6751932675       22.9587486272       -1.4274831974  MEMB      274             0.0000000000
     31708       274  POPE      C218           42.6069181014       21.4040039927        0.0385171055  MEMB      274             0.0000000000
     31709       274  POPE      H18R           43.5508171268       21.8742027475        0.3882139911  MEMB      274             0.0000000000
     31710       274  POPE      H18S           42.9022163824       20.4287802254       -0.4042695791  MEMB      274             0.0000000000
     31711       274  POPE      H18T           41.9159788420       21.2868303951        0.9006038382  MEMB      274             0.0000000000
     31712       274  POPE      C33            41.9437764225       19.3510497559      -14.3987029264  MEMB      274             0.0000000000
     31713       274  POPE      H3X            42.2207497126       20.2088218209      -13.7492154848  MEMB      274             0.0000000000
     31714       274  POPE      H3Y            42.0208053557       19.5725320210      -15.4846738300  MEMB      274             0.0000000000
     31715       274  POPE      C34            42.9882456578       18.2792672419      -14.0830682836  MEMB      274             0.0000000000
     31716       274  POPE      H4X            43.9349278520       18.7224190184      -14.4595390502  MEMB      274             0.0000000000
     31717       274  POPE      H4Y            42.7476477627       17.3550892224      -14.6508078565  MEMB      274             0.0000000000
     31718       274  POPE      C35            43.0869428803       17.9704651381      -12.6295985689  MEMB      274             0.0000000000
     31719       274  POPE      H5X            43.4173001753       16.9257140700      -12.4460773577  MEMB      274             0.0000000000
     31720       274  POPE      H5Y            42.0395183623       18.0650178157      -12.2714328579  MEMB      274             0.0000000000
     31721       274  POPE      C36            44.1503833577       18.7535533136      -11.8857006908  MEMB      274             0.0000000000
     31722       274  POPE      H6X            44.0369821942       19.8349257371      -12.1139433553  MEMB      274             0.0000000000
     31723       274  POPE      H6Y            45.1789691275       18.4808252419      -12.2049988422  MEMB      274             0.0000000000
     31724       274  POPE      C37            44.1487467516       18.4710087763      -10.3278761976  MEMB      274             0.0000000000
     31725       274  POPE      H7X            43.5694546469       17.6037749570       -9.9449314068  MEMB      274             0.0000000000
     31726       274  POPE      H7Y            43.4148651210       19.2001499990       -9.9227933690  MEMB      274             0.0000000000
     31727       274  POPE      C38            45.4878486909       18.6777481396       -9.6204883259  MEMB      274             0.0000000000
     31728       274  POPE      H8X            46.1462973795       19.5335415302       -9.8819917122  MEMB      274             0.0000000000
     31729       274  POPE      H8Y            46.0165254477       17.7384349996       -9.8897703563  MEMB      274             0.0000000000
     31730       274  POPE      C39            45.4066388181       18.8626501069       -8.1379556735  MEMB      274             0.0000000000
     31731       274  POPE      H9X            44.8162358822       19.7936883831       -8.0004297730  MEMB      274             0.0000000000
     31732       274  POPE      H9Y            46.4253056145       19.1351939650       -7.7881574175  MEMB      274             0.0000000000
     31733       274  POPE      C310           44.7091686257       17.7731880053       -7.2521886848  MEMB      274             0.0000000000
     31734       274  POPE      H10X           44.9972761500       16.7717907045       -7.6375694739  MEMB      274             0.0000000000
     31735       274  POPE      H10Y           43.5997424702       17.7743049197       -7.3112920836  MEMB      274             0.0000000000
     31736       274  POPE      C311           45.0506218169       17.8467702712       -5.7727891958  MEMB      274             0.0000000000
     31737       274  POPE      H11X           45.9803700836       17.2689399098       -5.5830481538  MEMB      274             0.0000000000
     31738       274  POPE      H11Y           44.3176881153       17.2151117902       -5.2267700871  MEMB      274             0.0000000000
     31739       274  POPE      C312           45.1754646779       19.2863410301       -5.1598854380  MEMB      274             0.0000000000
     31740       274  POPE      H12X           44.2289586195       19.8207336310       -5.3898248647  MEMB      274             0.0000000000
     31741       274  POPE      H12Y           45.9255774577       19.7579987248       -5.8301028245  MEMB      274             0.0000000000
     31742       274  POPE      C313           45.5515342654       19.2870333542       -3.6236043353  MEMB      274             0.0000000000
     31743       274  POPE      H13X           46.6319075719       19.0587453519       -3.5011328811  MEMB      274             0.0000000000
     31744       274  POPE      H13Y           44.8680982522       18.6112982932       -3.0662726097  MEMB      274             0.0000000000
     31745       274  POPE      C314           45.2635529655       20.6605155316       -2.8725185919  MEMB      274             0.0000000000
     31746       274  POPE      H14X           45.3077400637       20.3563698971       -1.8048746987  MEMB      274             0.0000000000
     31747       274  POPE      H14Y           44.3005147170       21.0930468563       -3.2186338013  MEMB      274             0.0000000000
     31748       274  POPE      C315           46.3556631236       21.7923225074       -3.1121184677  MEMB      274             0.0000000000
     31749       274  POPE      H15X           46.4436776706       22.0555898033       -4.1878811587  MEMB      274             0.0000000000
     31750       274  POPE      H15Y           47.3195451031       21.4237664189       -2.7005129828  MEMB      274             0.0000000000
     31751       274  POPE      C316           46.0692448599       23.1486261207       -2.3994368553  MEMB      274             0.0000000000
     31752       274  POPE      H16X           46.7130161790       23.9883527946       -2.7381678207  MEMB      274             0.0000000000
     31753       274  POPE      H16Y           46.3741043434       22.8194969151       -1.3830431422  MEMB      274             0.0000000000
     31754       274  POPE      H16Z           45.0295090414       23.5281418384       -2.4955522229  MEMB      274             0.0000000000
     31755       275  POPC      N              45.5351020256       12.0489390144      -18.0299810320  MEMB      275             0.0000000000
     31756       275  POPC      C12            45.2716476963       13.4753214750      -17.5420845835  MEMB      275             0.0000000000
     31757       275  POPC      H12A           45.4365410473       13.5295791797      -16.4761266164  MEMB      275             0.0000000000
     31758       275  POPC      H12B           44.2141714868       13.6523534482      -17.6717138552  MEMB      275             0.0000000000
     31759       275  POPC      C13            45.2453019292       11.8911354129      -19.5507396745  MEMB      275             0.0000000000
     31760       275  POPC      H13A           46.0826465215       12.3214021789      -20.0800075534  MEMB      275             0.0000000000
     31761       275  POPC      H13B           45.1497000364       10.8172059428      -19.6134758244  MEMB      275             0.0000000000
     31762       275  POPC      H13C           44.2732941869       12.3351058594      -19.7072359129  MEMB      275             0.0000000000
     31763       275  POPC      C14            46.9578716342       11.5920693935      -17.7063201349  MEMB      275             0.0000000000
     31764       275  POPC      H14A           47.2507111685       10.8333564782      -18.4169532576  MEMB      275             0.0000000000
     31765       275  POPC      H14B           47.7084083648       12.3659743462      -17.7708622194  MEMB      275             0.0000000000
     31766       275  POPC      H14C           46.9427144600       11.0384978689      -16.7791046718  MEMB      275             0.0000000000
     31767       275  POPC      C15            44.5695238546       11.2252480690      -17.2296382497  MEMB      275             0.0000000000
     31768       275  POPC      H15A           44.7885296409       11.6148831622      -16.2464695854  MEMB      275             0.0000000000
     31769       275  POPC      H15B           44.7320958305       10.1584987208      -17.2745382361  MEMB      275             0.0000000000
     31770       275  POPC      H15C           43.5566788401       11.5537212997      -17.4103321010  MEMB      275             0.0000000000
     31771       275  POPC      C11            46.0314859848       14.6851895932      -18.2403148538  MEMB      275             0.0000000000
     31772       275  POPC      H11A           47.0771185169       14.4622343553      -17.9382148045  MEMB      275             0.0000000000
     31773       275  POPC      H11B           45.5828279081       15.5429880615      -17.6951462238  MEMB      275             0.0000000000
     31774       275  POPC      P              44.7070152838       15.5531374444      -20.2473600379  MEMB      275             0.0000000000
     31775       275  POPC      O13            44.0796195163       14.7307608262      -21.2455321554  MEMB      275             0.0000000000
     31776       275  POPC      O14            45.1308377981       16.9282291759      -20.5595110559  MEMB      275             0.0000000000
     31777       275  POPC      O12            46.0052180997       14.7680042667      -19.6789895740  MEMB      275             0.0000000000
     31778       275  POPC      O11            43.7400322303       15.5779549213      -18.9695286397  MEMB      275             0.0000000000
     31779       275  POPC      C1             42.6164466886       14.5904791870      -18.9547892625  MEMB      275             0.0000000000
     31780       275  POPC      HA             42.9946759898       13.5547816288      -18.8184298033  MEMB      275             0.0000000000
     31781       275  POPC      HB             41.9390665831       14.6824010743      -19.8305904893  MEMB      275             0.0000000000
     31782       275  POPC      C2             41.7816786401       14.8339144238      -17.6529381939  MEMB      275             0.0000000000
     31783       275  POPC      HS             41.2401274601       15.8039411212      -17.6624956104  MEMB      275             0.0000000000
     31784       275  POPC      O21            42.7185100766       14.7149882494      -16.5802887553  MEMB      275             0.0000000000
     31785       275  POPC      C21            42.6727920246       15.6296491087      -15.6716137492  MEMB      275             0.0000000000
     31786       275  POPC      O22            41.8856397092       16.5736628265      -15.6633435434  MEMB      275             0.0000000000
     31787       275  POPC      C22            43.7003170206       15.4096614932      -14.5282246125  MEMB      275             0.0000000000
     31788       275  POPC      H2R            44.6848181424       15.8873462835      -14.7203067471  MEMB      275             0.0000000000
     31789       275  POPC      H2S            43.8032162780       14.3232570827      -14.3197579837  MEMB      275             0.0000000000
     31790       275  POPC      C3             40.6448361859       13.7479598687      -17.6686999976  MEMB      275             0.0000000000
     31791       275  POPC      HX             41.0921897119       12.7334327696      -17.7389167915  MEMB      275             0.0000000000
     31792       275  POPC      HY             39.9930024835       13.9132700709      -18.5530676705  MEMB      275             0.0000000000
     31793       275  POPC      O31            39.7956154708       13.8097318291      -16.5084178638  MEMB      275             0.0000000000
     31794       275  POPC      C31            40.1027427005       13.1871942454      -15.4015795054  MEMB      275             0.0000000000
     31795       275  POPC      O32            41.1214348599       12.5139288087      -15.2954800224  MEMB      275             0.0000000000
     31796       275  POPC      C32            38.9799122431       13.3375809026      -14.4231743364  MEMB      275             0.0000000000
     31797       275  POPC      H2X            38.0418625180       12.7751564939      -14.6182707358  MEMB      275             0.0000000000
     31798       275  POPC      H2Y            38.6661474547       14.4032945367      -14.4119185181  MEMB      275             0.0000000000
     31799       275  POPC      C23            43.2058956172       16.0392532850      -13.1187950460  MEMB      275             0.0000000000
     31800       275  POPC      H3R            42.2146009785       15.5727805497      -12.9342443624  MEMB      275             0.0000000000
     31801       275  POPC      H3S            42.8949004368       17.1023875046      -13.2045184842  MEMB      275             0.0000000000
     31802       275  POPC      C24            44.0566199923       15.5384715870      -11.9639026839  MEMB      275             0.0000000000
     31803       275  POPC      H4R            44.4930671992       14.5388319989      -12.1749844221  MEMB      275             0.0000000000
     31804       275  POPC      H4S            43.4987808330       15.3076212098      -11.0312481528  MEMB      275             0.0000000000
     31805       275  POPC      C25            45.1604046465       16.5179356104      -11.6018827477  MEMB      275             0.0000000000
     31806       275  POPC      H5R            44.6809968671       17.5034578278      -11.4195772347  MEMB      275             0.0000000000
     31807       275  POPC      H5S            45.9697820170       16.6742243569      -12.3467335792  MEMB      275             0.0000000000
     31808       275  POPC      C26            45.7923886134       16.0781912764      -10.2943898830  MEMB      275             0.0000000000
     31809       275  POPC      H6R            46.4118850465       15.1931736127      -10.5537907917  MEMB      275             0.0000000000
     31810       275  POPC      H6S            45.0996302083       15.8067131088       -9.4693406314  MEMB      275             0.0000000000
     31811       275  POPC      C27            46.6846622274       17.1686420782       -9.6920554841  MEMB      275             0.0000000000
     31812       275  POPC      H7R            46.0293517923       18.0426023090       -9.4893661929  MEMB      275             0.0000000000
     31813       275  POPC      H7S            47.4629081238       17.2908275168      -10.4754614913  MEMB      275             0.0000000000
     31814       275  POPC      C28            47.4428724886       16.6625293530       -8.3946515355  MEMB      275             0.0000000000
     31815       275  POPC      H8R            46.8356168763       16.3967943753       -7.5030543130  MEMB      275             0.0000000000
     31816       275  POPC      H8S            48.1617292232       17.4398396231       -8.0579698765  MEMB      275             0.0000000000
     31817       275  POPC      C29            48.2773495548       15.4509586820       -8.7871452942  MEMB      275             0.0000000000
     31818       275  POPC      H91            49.1491546321       15.6991472479       -9.4103296381  MEMB      275             0.0000000000
     31819       275  POPC      C210           48.1161991501       14.1924893361       -8.3889093648  MEMB      275             0.0000000000
     31820       275  POPC      H101           48.7189027885       13.3656257031       -8.7926980961  MEMB      275             0.0000000000
     31821       275  POPC      C211           47.0342408566       13.6814581968       -7.4127744140  MEMB      275             0.0000000000
     31822       275  POPC      H11R           46.4146930445       12.8698185526       -7.8506356263  MEMB      275             0.0000000000
     31823       275  POPC      H11S           46.3459372267       14.4943627323       -7.0969489944  MEMB      275             0.0000000000
     31824       275  POPC      C212           47.7136148483       13.1841114700       -6.1475619209  MEMB      275             0.0000000000
     31825       275  POPC      H12R           48.2024810070       14.0369076761       -5.6298075566  MEMB      275             0.0000000000
     31826       275  POPC      H12S           48.5789973488       12.5448911983       -6.4247457179  MEMB      275             0.0000000000
     31827       275  POPC      C213           46.7988999254       12.4105184003       -5.1309077999  MEMB      275             0.0000000000
     31828       275  POPC      H13R           46.0157415464       11.9472015941       -5.7683408704  MEMB      275             0.0000000000
     31829       275  POPC      H13S           46.3240657033       13.2388888451       -4.5628794630  MEMB      275             0.0000000000
     31830       275  POPC      C214           47.4353513882       11.3105269935       -4.3624820218  MEMB      275             0.0000000000
     31831       275  POPC      H14R           48.4198028973       11.7153187297       -4.0441751781  MEMB      275             0.0000000000
     31832       275  POPC      H14S           47.5306795418       10.4984074418       -5.1146093379  MEMB      275             0.0000000000
     31833       275  POPC      C215           46.6164373086       10.8210047551       -3.1343227886  MEMB      275             0.0000000000
     31834       275  POPC      H15R           47.1819641875       10.0024884790       -2.6398211116  MEMB      275             0.0000000000
     31835       275  POPC      H15S           45.6166916191       10.4634997582       -3.4614610016  MEMB      275             0.0000000000
     31836       275  POPC      C216           46.1905553784       11.8077327460       -2.1020376303  MEMB      275             0.0000000000
     31837       275  POPC      H16R           45.4322606613       12.4906648412       -2.5412569376  MEMB      275             0.0000000000
     31838       275  POPC      H16S           46.9527561121       12.5552086701       -1.7943836330  MEMB      275             0.0000000000
     31839       275  POPC      C217           45.6486296492       11.1299846531       -0.7711060116  MEMB      275             0.0000000000
     31840       275  POPC      H17R           46.4027710630       11.0546245659        0.0412454810  MEMB      275             0.0000000000
     31841       275  POPC      H17S           45.5277988280       10.0365476171       -0.9263994199  MEMB      275             0.0000000000
     31842       275  POPC      C218           44.3961974930       11.8372953866       -0.2032469883  MEMB      275             0.0000000000
     31843       275  POPC      H18R           43.9411858488       11.3809426044        0.7017537169  MEMB      275             0.0000000000
     31844       275  POPC      H18S           43.6347343698       11.7473113121       -1.0072362864  MEMB      275             0.0000000000
     31845       275  POPC      H18T           44.6023539265       12.9106855941       -0.0041139983  MEMB      275             0.0000000000
     31846       275  POPC      C33            39.5171049191       13.0650408724      -12.9952498453  MEMB      275             0.0000000000
     31847       275  POPC      H3X            40.4630345923       13.6242278411      -12.8313962488  MEMB      275             0.0000000000
     31848       275  POPC      H3Y            39.8351778461       12.0005473858      -12.9930996669  MEMB      275             0.0000000000
     31849       275  POPC      C34            38.4861091962       13.3372309663      -11.9616920305  MEMB      275             0.0000000000
     31850       275  POPC      H4X            37.4984584931       12.8540087039      -12.1209503517  MEMB      275             0.0000000000
     31851       275  POPC      H4Y            38.2950486593       14.4309622694      -12.0012942113  MEMB      275             0.0000000000
     31852       275  POPC      C35            39.0893079053       13.0842120132      -10.5358629294  MEMB      275             0.0000000000
     31853       275  POPC      H5X            39.4850808714       12.0527580611      -10.4184416873  MEMB      275             0.0000000000
     31854       275  POPC      H5Y            38.2421030999       13.0570819500       -9.8176500984  MEMB      275             0.0000000000
     31855       275  POPC      C36            40.1261531104       14.1623290260      -10.0745931891  MEMB      275             0.0000000000
     31856       275  POPC      H6X            39.6165016768       15.1393629670      -10.2159484019  MEMB      275             0.0000000000
     31857       275  POPC      H6Y            41.0783307987       14.1090971568      -10.6445442221  MEMB      275             0.0000000000
     31858       275  POPC      C37            40.5276964267       14.1531137158       -8.4994706156  MEMB      275             0.0000000000
     31859       275  POPC      H7X            40.0466714305       13.2463891493       -8.0742806494  MEMB      275             0.0000000000
     31860       275  POPC      H7Y            40.0284345494       15.0527465354       -8.0802817255  MEMB      275             0.0000000000
     31861       275  POPC      C38            42.0327441372       14.2010190464       -8.1548731317  MEMB      275             0.0000000000
     31862       275  POPC      H8X            42.4468608723       14.8972111738       -8.9152308506  MEMB      275             0.0000000000
     31863       275  POPC      H8Y            42.5222737125       13.2165060852       -8.3142966045  MEMB      275             0.0000000000
     31864       275  POPC      C39            42.4066399974       14.9447236528       -6.8454520244  MEMB      275             0.0000000000
     31865       275  POPC      H9X            41.8929290370       14.3661211230       -6.0481809763  MEMB      275             0.0000000000
     31866       275  POPC      H9Y            42.0149009539       15.9808840345       -6.9305013770  MEMB      275             0.0000000000
     31867       275  POPC      C310           43.8349999996       14.7667651132       -6.3601255531  MEMB      275             0.0000000000
     31868       275  POPC      H10X           44.4862100880       15.4594640394       -6.9349422435  MEMB      275             0.0000000000
     31869       275  POPC      H10Y           44.1723825384       13.7149114392       -6.4788599939  MEMB      275             0.0000000000
     31870       275  POPC      C311           44.0534006582       15.1283340534       -4.9043317422  MEMB      275             0.0000000000
     31871       275  POPC      H11X           45.1564662219       15.0365652044       -4.8086966871  MEMB      275             0.0000000000
     31872       275  POPC      H11Y           43.5840717316       14.3309746186       -4.2892965440  MEMB      275             0.0000000000
     31873       275  POPC      C312           43.4505203976       16.4769886928       -4.5842815911  MEMB      275             0.0000000000
     31874       275  POPC      H12X           42.3424225561       16.4008670705       -4.6096882309  MEMB      275             0.0000000000
     31875       275  POPC      H12Y           43.8269138554       17.2171594485       -5.3223843949  MEMB      275             0.0000000000
     31876       275  POPC      C313           43.9770047964       17.0803867460       -3.2848915135  MEMB      275             0.0000000000
     31877       275  POPC      H13X           43.3716484675       17.9644420319       -2.9911044360  MEMB      275             0.0000000000
     31878       275  POPC      H13Y           45.0136441166       17.4698032130       -3.3746404838  MEMB      275             0.0000000000
     31879       275  POPC      C314           43.9363045468       16.0540118540       -2.0930393304  MEMB      275             0.0000000000
     31880       275  POPC      H14X           44.5646013551       15.1759756329       -2.3549856069  MEMB      275             0.0000000000
     31881       275  POPC      H14Y           42.8320431113       15.9460093592       -2.0359117003  MEMB      275             0.0000000000
     31882       275  POPC      C315           44.2755327013       16.5966953219       -0.6688410357  MEMB      275             0.0000000000
     31883       275  POPC      H15X           43.9798011526       17.6665021284       -0.6200776263  MEMB      275             0.0000000000
     31884       275  POPC      H15Y           45.3767784602       16.5254948059       -0.5403513104  MEMB      275             0.0000000000
     31885       275  POPC      C316           43.6131498337       15.8803330749        0.5759225144  MEMB      275             0.0000000000
     31886       275  POPC      H16X           44.4326969792       15.2174282842        0.9269511954  MEMB      275             0.0000000000
     31887       275  POPC      H16Y           42.6875417320       15.3383822885        0.2863367380  MEMB      275             0.0000000000
     31888       275  POPC      H16Z           43.3100605230       16.5966357756        1.3692488136  MEMB      275             0.0000000000
     31889       276  POPC      N              23.7984054279       40.5673775461      -20.8628405755  MEMB      276             0.0000000000
     31890       276  POPC      C12            22.9685024793       41.8921664532      -20.8037057547  MEMB      276             0.0000000000
     31891       276  POPC      H12A           22.0608503366       41.7261660179      -21.3649644569  MEMB      276             0.0000000000
     31892       276  POPC      H12B           23.5221002787       42.6379175144      -21.3548725249  MEMB      276             0.0000000000
     31893       276  POPC      C13            23.0248634542       39.4670799143      -20.1918010547  MEMB      276             0.0000000000
     31894       276  POPC      H13A           22.1564234279       39.2175942171      -20.7833827330  MEMB      276             0.0000000000
     31895       276  POPC      H13B           23.5910046744       38.5690603358      -19.9931932936  MEMB      276             0.0000000000
     31896       276  POPC      H13C           22.7414752684       39.8457364831      -19.2208683627  MEMB      276             0.0000000000
     31897       276  POPC      C14            23.9865662487       40.2456139362      -22.2821373195  MEMB      276             0.0000000000
     31898       276  POPC      H14A           24.3499179404       39.2286855727      -22.2973843028  MEMB      276             0.0000000000
     31899       276  POPC      H14B           23.0335733538       40.2650832164      -22.7899022906  MEMB      276             0.0000000000
     31900       276  POPC      H14C           24.7120112495       40.8528314623      -22.8031138898  MEMB      276             0.0000000000
     31901       276  POPC      C15            25.1516221027       40.7325412485      -20.1315388914  MEMB      276             0.0000000000
     31902       276  POPC      H15A           25.7619691359       41.5619098307      -20.4571526028  MEMB      276             0.0000000000
     31903       276  POPC      H15B           25.7240550978       39.8208850473      -20.2187370090  MEMB      276             0.0000000000
     31904       276  POPC      H15C           24.9089264346       40.8240175491      -19.0831444362  MEMB      276             0.0000000000
     31905       276  POPC      C11            22.4783621219       42.4570163113      -19.4603810845  MEMB      276             0.0000000000
     31906       276  POPC      H11A           21.6785447342       41.7476273813      -19.1580890797  MEMB      276             0.0000000000
     31907       276  POPC      H11B           22.1467329322       43.4628768061      -19.7959217930  MEMB      276             0.0000000000
     31908       276  POPC      P              23.5461439163       42.2673685923      -16.9801618145  MEMB      276             0.0000000000
     31909       276  POPC      O13            23.7963660820       40.8087236230      -16.8481867627  MEMB      276             0.0000000000
     31910       276  POPC      O14            22.3427356217       42.8726446601      -16.4668708258  MEMB      276             0.0000000000
     31911       276  POPC      O12            23.6136633457       42.6087249199      -18.5883278986  MEMB      276             0.0000000000
     31912       276  POPC      O11            24.7602786018       43.0432213218      -16.3840480163  MEMB      276             0.0000000000
     31913       276  POPC      C1             25.5909809137       43.9079302773      -17.2453143294  MEMB      276             0.0000000000
     31914       276  POPC      HA             24.8949475457       44.5673543306      -17.8065791590  MEMB      276             0.0000000000
     31915       276  POPC      HB             26.2080695684       43.2546201663      -17.8985434338  MEMB      276             0.0000000000
     31916       276  POPC      C2             26.6932500051       44.6278762574      -16.4046923743  MEMB      276             0.0000000000
     31917       276  POPC      HS             27.3055693614       45.2946379365      -17.0487537707  MEMB      276             0.0000000000
     31918       276  POPC      O21            27.4581065545       43.6279951826      -15.6319514055  MEMB      276             0.0000000000
     31919       276  POPC      C21            28.3973576386       42.9002690372      -16.2807853906  MEMB      276             0.0000000000
     31920       276  POPC      O22            28.6671660281       42.9384921423      -17.4723017210  MEMB      276             0.0000000000
     31921       276  POPC      C22            28.9353191138       41.9727176282      -15.1771964975  MEMB      276             0.0000000000
     31922       276  POPC      H2R            28.4330302421       42.2201151635      -14.2176019134  MEMB      276             0.0000000000
     31923       276  POPC      H2S            30.0100021859       42.2445754916      -15.1032349865  MEMB      276             0.0000000000
     31924       276  POPC      C3             26.0313114804       45.6256391824      -15.3332714159  MEMB      276             0.0000000000
     31925       276  POPC      HX             25.4647638165       46.3160169710      -15.9941217553  MEMB      276             0.0000000000
     31926       276  POPC      HY             26.8540722555       46.0777756654      -14.7391683967  MEMB      276             0.0000000000
     31927       276  POPC      O31            25.2129063647       44.8503947991      -14.4928917121  MEMB      276             0.0000000000
     31928       276  POPC      C31            24.8202853557       45.5051963316      -13.3645583110  MEMB      276             0.0000000000
     31929       276  POPC      O32            25.1423746120       46.6504201111      -13.1233636248  MEMB      276             0.0000000000
     31930       276  POPC      C32            24.1214493558       44.5152849156      -12.4814933924  MEMB      276             0.0000000000
     31931       276  POPC      H2X            24.7246528219       43.5938609067      -12.3350541738  MEMB      276             0.0000000000
     31932       276  POPC      H2Y            23.2842286815       44.0355846906      -13.0321932388  MEMB      276             0.0000000000
     31933       276  POPC      C23            28.6770330638       40.4305174373      -15.5103177531  MEMB      276             0.0000000000
     31934       276  POPC      H3R            29.0715510422       39.7686225640      -14.7099606988  MEMB      276             0.0000000000
     31935       276  POPC      H3S            29.1660271671       40.1894458175      -16.4783520952  MEMB      276             0.0000000000
     31936       276  POPC      C24            27.1995686669       40.0572841335      -15.5650798893  MEMB      276             0.0000000000
     31937       276  POPC      H4R            27.2438008890       38.9472298966      -15.5770819460  MEMB      276             0.0000000000
     31938       276  POPC      H4S            26.6932807885       40.2983281998      -16.5241896642  MEMB      276             0.0000000000
     31939       276  POPC      C25            26.3868108291       40.4628371165      -14.2820350808  MEMB      276             0.0000000000
     31940       276  POPC      H5R            26.1668997466       41.5517161476      -14.2994261919  MEMB      276             0.0000000000
     31941       276  POPC      H5S            27.0143586529       40.1099287017      -13.4358907571  MEMB      276             0.0000000000
     31942       276  POPC      C26            25.1523749010       39.5705934071      -14.2198018691  MEMB      276             0.0000000000
     31943       276  POPC      H6R            25.5936120598       38.5554508519      -14.1243220200  MEMB      276             0.0000000000
     31944       276  POPC      H6S            24.5570041914       39.5190426387      -15.1563899376  MEMB      276             0.0000000000
     31945       276  POPC      C27            24.2949482511       39.7817886042      -12.9216227833  MEMB      276             0.0000000000
     31946       276  POPC      H7R            23.4474919936       39.0715323779      -12.8135733624  MEMB      276             0.0000000000
     31947       276  POPC      H7S            23.8359422556       40.7934353476      -12.9072878190  MEMB      276             0.0000000000
     31948       276  POPC      C28            25.2321736440       39.5634301099      -11.7000188092  MEMB      276             0.0000000000
     31949       276  POPC      H8R            25.7022978630       40.5353939163      -11.4381201095  MEMB      276             0.0000000000
     31950       276  POPC      H8S            26.0802634742       38.9081426485      -11.9927004498  MEMB      276             0.0000000000
     31951       276  POPC      C29            24.5168859295       38.9165178261      -10.5218944371  MEMB      276             0.0000000000
     31952       276  POPC      H91            24.6471831898       37.8276397301      -10.6077273289  MEMB      276             0.0000000000
     31953       276  POPC      C210           23.8867423355       39.5470199902       -9.5242688057  MEMB      276             0.0000000000
     31954       276  POPC      H101           23.7792791746       39.0694780183       -8.5391771156  MEMB      276             0.0000000000
     31955       276  POPC      C211           23.7440114175       41.0728594377       -9.3345596852  MEMB      276             0.0000000000
     31956       276  POPC      H11R           22.7040494412       41.3256193572       -9.6327420828  MEMB      276             0.0000000000
     31957       276  POPC      H11S           24.4601508211       41.6115619566       -9.9912673952  MEMB      276             0.0000000000
     31958       276  POPC      C212           24.1052264973       41.3914264247       -7.8210780367  MEMB      276             0.0000000000
     31959       276  POPC      H12R           23.2628825666       40.9758649512       -7.2277095401  MEMB      276             0.0000000000
     31960       276  POPC      H12S           24.0626791951       42.4975777964       -7.7265245390  MEMB      276             0.0000000000
     31961       276  POPC      C213           25.6010179442       41.0017624360       -7.3678008762  MEMB      276             0.0000000000
     31962       276  POPC      H13R           26.2209020047       41.8229121065       -7.7870598185  MEMB      276             0.0000000000
     31963       276  POPC      H13S           25.9116110657       40.0534807602       -7.8562834630  MEMB      276             0.0000000000
     31964       276  POPC      C214           25.6432202577       40.8779299807       -5.7701022641  MEMB      276             0.0000000000
     31965       276  POPC      H14R           24.7434159848       40.4114923041       -5.3150099129  MEMB      276             0.0000000000
     31966       276  POPC      H14S           25.5118252427       41.9143373784       -5.3920593683  MEMB      276             0.0000000000
     31967       276  POPC      C215           26.9503931115       40.2312329494       -5.1269952215  MEMB      276             0.0000000000
     31968       276  POPC      H15R           27.8626854423       40.7124876666       -5.5398360297  MEMB      276             0.0000000000
     31969       276  POPC      H15S           27.1888686314       39.2172814178       -5.5134568059  MEMB      276             0.0000000000
     31970       276  POPC      C216           26.9484549853       40.0647490616       -3.5276814264  MEMB      276             0.0000000000
     31971       276  POPC      H16R           27.4437758228       40.9369861655       -3.0499992428  MEMB      276             0.0000000000
     31972       276  POPC      H16S           27.7466281533       39.3011055935       -3.4089852430  MEMB      276             0.0000000000
     31973       276  POPC      C217           25.6273962195       39.6236844719       -2.8306255099  MEMB      276             0.0000000000
     31974       276  POPC      H17R           25.2237585650       38.6293674604       -3.1182571483  MEMB      276             0.0000000000
     31975       276  POPC      H17S           24.8704443394       40.4282981400       -2.9487014552  MEMB      276             0.0000000000
     31976       276  POPC      C218           25.9210620861       39.6965797980       -1.2618763047  MEMB      276             0.0000000000
     31977       276  POPC      H18R           26.6653273847       38.9162658535       -0.9944807283  MEMB      276             0.0000000000
     31978       276  POPC      H18S           25.0001708677       39.5626080047       -0.6549733090  MEMB      276             0.0000000000
     31979       276  POPC      H18T           26.2199002629       40.6935753405       -0.8732685780  MEMB      276             0.0000000000
     31980       276  POPC      C33            23.9256965857       45.1173268983      -11.1708348842  MEMB      276             0.0000000000
     31981       276  POPC      H3X            22.9633614480       44.6992572749      -10.8055271961  MEMB      276             0.0000000000
     31982       276  POPC      H3Y            23.7031713345       46.2053774320      -11.2016490264  MEMB      276             0.0000000000
     31983       276  POPC      C34            25.0894976364       44.9066780823      -10.0694010286  MEMB      276             0.0000000000
     31984       276  POPC      H4X            25.9491033889       45.5792994682      -10.2767157504  MEMB      276             0.0000000000
     31985       276  POPC      H4Y            25.4969559585       43.8748170757      -10.1290799952  MEMB      276             0.0000000000
     31986       276  POPC      C35            24.5530636476       45.0060992421       -8.6135375628  MEMB      276             0.0000000000
     31987       276  POPC      H5X            23.6741834990       44.3314726002       -8.5312596381  MEMB      276             0.0000000000
     31988       276  POPC      H5Y            24.2322190904       46.0555212497       -8.4400634384  MEMB      276             0.0000000000
     31989       276  POPC      C36            25.6212754308       44.9711010259       -7.5545476032  MEMB      276             0.0000000000
     31990       276  POPC      H6X            26.2945069565       45.8393900497       -7.7193345542  MEMB      276             0.0000000000
     31991       276  POPC      H6Y            26.1690768610       44.0150417425       -7.4124718515  MEMB      276             0.0000000000
     31992       276  POPC      C37            24.9309399650       45.0501279747       -6.2295788560  MEMB      276             0.0000000000
     31993       276  POPC      H7X            24.3042063951       44.1789759314       -5.9421415215  MEMB      276             0.0000000000
     31994       276  POPC      H7Y            24.2386100002       45.9169226516       -6.1690220906  MEMB      276             0.0000000000
     31995       276  POPC      C38            25.8214417374       45.2190279976       -5.0410528465  MEMB      276             0.0000000000
     31996       276  POPC      H8X            26.2648789791       46.2358543401       -5.1022782884  MEMB      276             0.0000000000
     31997       276  POPC      H8Y            26.6100420210       44.4364596294       -5.0368643354  MEMB      276             0.0000000000
     31998       276  POPC      C39            25.1379779846       45.1221662425       -3.6794774942  MEMB      276             0.0000000000
     31999       276  POPC      H9X            24.5602140583       44.1737742627       -3.6468779416  MEMB      276             0.0000000000
     32000       276  POPC      H9Y            24.4616274645       45.9990957274       -3.5907868281  MEMB      276             0.0000000000
     32001       276  POPC      C310           25.9927625842       45.0722411830       -2.4326665357  MEMB      276             0.0000000000
     32002       276  POPC      H10X           26.7697707371       45.8657321489       -2.4635066202  MEMB      276             0.0000000000
     32003       276  POPC      H10Y           26.5830469720       44.1311893226       -2.4501786042  MEMB      276             0.0000000000
     32004       276  POPC      C311           25.2793678005       45.2355004029       -1.0268960753  MEMB      276             0.0000000000
     32005       276  POPC      H11X           24.8904695953       46.2745627751       -0.9683402561  MEMB      276             0.0000000000
     32006       276  POPC      H11Y           26.1371239086       45.2763321283       -0.3219771666  MEMB      276             0.0000000000
     32007       276  POPC      C312           24.4859239804       44.0472832943       -0.5623957834  MEMB      276             0.0000000000
     32008       276  POPC      H12X           25.0631558943       43.1649539758       -0.2122256196  MEMB      276             0.0000000000
     32009       276  POPC      H12Y           23.6843780817       43.7727041753       -1.2810428659  MEMB      276             0.0000000000
     32010       276  POPC      C313           23.7767856538       44.2993147554        0.8086345253  MEMB      276             0.0000000000
     32011       276  POPC      H13X           23.3652069473       45.3309054115        0.7813408874  MEMB      276             0.0000000000
     32012       276  POPC      H13Y           24.4669642861       44.3478710990        1.6778963637  MEMB      276             0.0000000000
     32013       276  POPC      C314           22.5143646973       43.4208258240        1.0866290688  MEMB      276             0.0000000000
     32014       276  POPC      H14X           21.6498910653       43.6351577080        0.4225012529  MEMB      276             0.0000000000
     32015       276  POPC      H14Y           22.1846214260       43.5976066481        2.1327364309  MEMB      276             0.0000000000
     32016       276  POPC      C315           22.7819027658       41.9529550468        1.0205441747  MEMB      276             0.0000000000
     32017       276  POPC      H15X           22.7126989725       41.7581345794       -0.0710506728  MEMB      276             0.0000000000
     32018       276  POPC      H15Y           21.8573091347       41.5220672893        1.4607517137  MEMB      276             0.0000000000
     32019       276  POPC      C316           23.9393736297       41.4307916651        1.7363184921  MEMB      276             0.0000000000
     32020       276  POPC      H16X           24.9307742757       41.8764512814        1.5064636441  MEMB      276             0.0000000000
     32021       276  POPC      H16Y           23.9562703160       40.3551998390        1.4585801635  MEMB      276             0.0000000000
     32022       276  POPC      H16Z           23.8159472873       41.4167959671        2.8403518708  MEMB      276             0.0000000000
     32023       277  POPE      N             -37.7487662499       22.7235550552      -21.3366174888  MEMB      277             0.0000000000
     32024       277  POPE      HN1           -37.8525695914       23.6896074546      -20.9657165062  MEMB      277             0.0000000000
     32025       277  POPE      HN2           -38.3229308488       22.5682118930      -22.1897315318  MEMB      277             0.0000000000
     32026       277  POPE      HN3           -38.1768543804       22.0163182857      -20.7056208132  MEMB      277             0.0000000000
     32027       277  POPE      C12           -36.3006135216       22.4381238157      -21.4575832198  MEMB      277             0.0000000000
     32028       277  POPE      H12A          -35.9038854989       23.1640461132      -22.1991791735  MEMB      277             0.0000000000
     32029       277  POPE      H12B          -36.1919542620       21.3796939147      -21.7773333930  MEMB      277             0.0000000000
     32030       277  POPE      C11           -35.4810635908       22.6288227807      -20.1889242118  MEMB      277             0.0000000000
     32031       277  POPE      H11A          -35.4829925119       23.7135723275      -19.9488498756  MEMB      277             0.0000000000
     32032       277  POPE      H11B          -34.4406502150       22.5087815265      -20.5596680488  MEMB      277             0.0000000000
     32033       277  POPE      P             -36.2104612562       22.5186383844      -17.7680523389  MEMB      277             0.0000000000
     32034       277  POPE      O13           -36.5941736167       21.4551245228      -16.7679094836  MEMB      277             0.0000000000
     32035       277  POPE      O14           -37.1930868226       23.5888022134      -18.1141989016  MEMB      277             0.0000000000
     32036       277  POPE      O11           -34.9229852646       23.1938749578      -17.2826966332  MEMB      277             0.0000000000
     32037       277  POPE      O12           -35.7930320444       21.7773502390      -19.0840177548  MEMB      277             0.0000000000
     32038       277  POPE      C1            -33.6674148631       22.4544972230      -17.2183862915  MEMB      277             0.0000000000
     32039       277  POPE      HA            -32.7584221349       22.9924304582      -17.5628878292  MEMB      277             0.0000000000
     32040       277  POPE      HB            -33.6972449150       21.4964927856      -17.7802213756  MEMB      277             0.0000000000
     32041       277  POPE      C2            -33.3196737976       22.0931988349      -15.7366625795  MEMB      277             0.0000000000
     32042       277  POPE      HS            -33.7427595991       21.0992045422      -15.4772502762  MEMB      277             0.0000000000
     32043       277  POPE      O21           -33.7988683094       23.2409912005      -14.9653372568  MEMB      277             0.0000000000
     32044       277  POPE      C21           -34.1337941190       23.0754221508      -13.7241849764  MEMB      277             0.0000000000
     32045       277  POPE      O22           -34.2857742215       21.9975281096      -13.1876559268  MEMB      277             0.0000000000
     32046       277  POPE      C22           -34.0170158339       24.4599136879      -13.0601357241  MEMB      277             0.0000000000
     32047       277  POPE      H2R           -34.7009284982       25.1896732713      -13.5439077897  MEMB      277             0.0000000000
     32048       277  POPE      H2S           -32.9525793933       24.7770868259      -13.0865423667  MEMB      277             0.0000000000
     32049       277  POPE      C3            -31.7817641999       21.9681370942      -15.5793348663  MEMB      277             0.0000000000
     32050       277  POPE      HX            -31.3060975082       22.9358864488      -15.8467733707  MEMB      277             0.0000000000
     32051       277  POPE      HY            -31.5043648313       21.1622814811      -16.2920531019  MEMB      277             0.0000000000
     32052       277  POPE      O31           -31.4482050279       21.4814934967      -14.2555199351  MEMB      277             0.0000000000
     32053       277  POPE      C31           -30.6276762049       22.3281173264      -13.5106997828  MEMB      277             0.0000000000
     32054       277  POPE      O32           -30.3361016964       23.4870915830      -13.8381449058  MEMB      277             0.0000000000
     32055       277  POPE      C32           -30.2498610513       21.6379424547      -12.1928364279  MEMB      277             0.0000000000
     32056       277  POPE      H2X           -29.8577786279       20.6131866477      -12.3673865644  MEMB      277             0.0000000000
     32057       277  POPE      H2Y           -31.1431941367       21.4115725545      -11.5723258088  MEMB      277             0.0000000000
     32058       277  POPE      C23           -34.4267048708       24.4518107448      -11.5789932772  MEMB      277             0.0000000000
     32059       277  POPE      H3R           -34.0827636194       23.5547557406      -11.0210342094  MEMB      277             0.0000000000
     32060       277  POPE      H3S           -35.5332758872       24.3590346287      -11.6138365830  MEMB      277             0.0000000000
     32061       277  POPE      C24           -34.0497331361       25.7302809043      -10.7358726845  MEMB      277             0.0000000000
     32062       277  POPE      H4R           -34.7355424375       26.5752218265      -10.9596158478  MEMB      277             0.0000000000
     32063       277  POPE      H4S           -33.0373014228       26.1607622571      -10.8907559880  MEMB      277             0.0000000000
     32064       277  POPE      C25           -33.9749084936       25.5195869859       -9.2230620642  MEMB      277             0.0000000000
     32065       277  POPE      H5R           -33.5039778536       26.4361088704       -8.8076906321  MEMB      277             0.0000000000
     32066       277  POPE      H5S           -33.3843662882       24.5984600324       -9.0304331989  MEMB      277             0.0000000000
     32067       277  POPE      C26           -35.3015521896       25.3602260112       -8.5751212124  MEMB      277             0.0000000000
     32068       277  POPE      H6R           -35.6410614618       24.3231912327       -8.7839594732  MEMB      277             0.0000000000
     32069       277  POPE      H6S           -36.0092181782       26.1792075104       -8.8257191008  MEMB      277             0.0000000000
     32070       277  POPE      C27           -35.4526493948       25.3114832309       -7.0066340426  MEMB      277             0.0000000000
     32071       277  POPE      H7R           -34.8823916855       24.4160266281       -6.6790901160  MEMB      277             0.0000000000
     32072       277  POPE      H7S           -36.5135089488       25.1112931454       -6.7442947914  MEMB      277             0.0000000000
     32073       277  POPE      C28           -34.9861310115       26.5613091577       -6.2918128978  MEMB      277             0.0000000000
     32074       277  POPE      H8R           -35.5861424207       27.3594429930       -6.7789370304  MEMB      277             0.0000000000
     32075       277  POPE      H8S           -33.9262571370       26.8661340237       -6.4262386592  MEMB      277             0.0000000000
     32076       277  POPE      C29           -35.1479601717       26.4291626365       -4.8324870067  MEMB      277             0.0000000000
     32077       277  POPE      H91           -35.9668666581       25.7478171714       -4.5583323998  MEMB      277             0.0000000000
     32078       277  POPE      C210          -34.5240128192       27.1012328465       -3.8264867345  MEMB      277             0.0000000000
     32079       277  POPE      H101          -34.8883384824       26.9961807343       -2.7939017029  MEMB      277             0.0000000000
     32080       277  POPE      C211          -33.4351537387       28.1517139837       -3.8923480238  MEMB      277             0.0000000000
     32081       277  POPE      H11R          -33.9675758280       29.1246307446       -3.9577752506  MEMB      277             0.0000000000
     32082       277  POPE      H11S          -32.9788152695       28.2699920350       -4.8983732319  MEMB      277             0.0000000000
     32083       277  POPE      C212          -32.3522332062       28.3642502941       -2.7517441041  MEMB      277             0.0000000000
     32084       277  POPE      H12R          -32.8006361638       28.5352100084       -1.7497318662  MEMB      277             0.0000000000
     32085       277  POPE      H12S          -31.8059031714       29.2846263259       -3.0496589825  MEMB      277             0.0000000000
     32086       277  POPE      C213          -31.2162809948       27.3306202965       -2.5670069440  MEMB      277             0.0000000000
     32087       277  POPE      H13R          -30.5638960253       27.1419441818       -3.4462768841  MEMB      277             0.0000000000
     32088       277  POPE      H13S          -31.7140107763       26.3458717808       -2.4371726397  MEMB      277             0.0000000000
     32089       277  POPE      C214          -30.2528627816       27.5576074305       -1.3416717965  MEMB      277             0.0000000000
     32090       277  POPE      H14R          -30.7349842210       27.9412252453       -0.4171629437  MEMB      277             0.0000000000
     32091       277  POPE      H14S          -29.6120108946       28.4338045447       -1.5781207759  MEMB      277             0.0000000000
     32092       277  POPE      C215          -29.2310101696       26.4302124962       -1.1122520314  MEMB      277             0.0000000000
     32093       277  POPE      H15R          -28.2590199364       26.9339408123       -0.9230051890  MEMB      277             0.0000000000
     32094       277  POPE      H15S          -29.2095146085       25.7163926555       -1.9633204377  MEMB      277             0.0000000000
     32095       277  POPE      C216          -29.4986602438       25.5424312107        0.1671297170  MEMB      277             0.0000000000
     32096       277  POPE      H16R          -29.6174341847       26.2366953488        1.0263221191  MEMB      277             0.0000000000
     32097       277  POPE      H16S          -28.6577850634       24.8249749790        0.2789630698  MEMB      277             0.0000000000
     32098       277  POPE      C217          -30.7913690619       24.6619888560       -0.0331375246  MEMB      277             0.0000000000
     32099       277  POPE      H17R          -31.0615957856       24.5976866010       -1.1088540203  MEMB      277             0.0000000000
     32100       277  POPE      H17S          -31.6058756985       25.1631189752        0.5323428493  MEMB      277             0.0000000000
     32101       277  POPE      C218          -30.6544347657       23.2645128418        0.4826654517  MEMB      277             0.0000000000
     32102       277  POPE      H18R          -30.0322580376       23.1869492623        1.3998364534  MEMB      277             0.0000000000
     32103       277  POPE      H18S          -30.0701851026       22.5469059341       -0.1321617321  MEMB      277             0.0000000000
     32104       277  POPE      H18T          -31.6258706957       22.7954547957        0.7484050630  MEMB      277             0.0000000000
     32105       277  POPE      C33           -29.3991253180       22.4488241746      -11.2025111565  MEMB      277             0.0000000000
     32106       277  POPE      H3X           -29.4719983757       23.5479271089      -11.3473660229  MEMB      277             0.0000000000
     32107       277  POPE      H3Y           -28.3091686062       22.2645015690      -11.3136019637  MEMB      277             0.0000000000
     32108       277  POPE      C34           -30.0158647922       22.2771580397       -9.8171306900  MEMB      277             0.0000000000
     32109       277  POPE      H4X           -31.0149754023       22.7617625638       -9.7816709055  MEMB      277             0.0000000000
     32110       277  POPE      H4Y           -29.4339673898       22.8231195783       -9.0440574521  MEMB      277             0.0000000000
     32111       277  POPE      C35           -30.0310392867       20.8791376428       -9.2518615159  MEMB      277             0.0000000000
     32112       277  POPE      H5X           -28.9819441817       20.5526170873       -9.4164973546  MEMB      277             0.0000000000
     32113       277  POPE      H5Y           -30.6875109602       20.2061256815       -9.8438241606  MEMB      277             0.0000000000
     32114       277  POPE      C36           -30.3566746167       20.8242273277       -7.7419752978  MEMB      277             0.0000000000
     32115       277  POPE      H6X           -29.6839647536       21.4495025354       -7.1168244430  MEMB      277             0.0000000000
     32116       277  POPE      H6Y           -30.0950548306       19.7956548440       -7.4134712892  MEMB      277             0.0000000000
     32117       277  POPE      C37           -31.7907658867       21.1812726589       -7.4026055227  MEMB      277             0.0000000000
     32118       277  POPE      H7X           -32.5674339948       20.5510972365       -7.8863271245  MEMB      277             0.0000000000
     32119       277  POPE      H7Y           -31.9709963065       22.2409871285       -7.6833959309  MEMB      277             0.0000000000
     32120       277  POPE      C38           -32.3502418249       20.8405726687       -6.0081305018  MEMB      277             0.0000000000
     32121       277  POPE      H8X           -32.3528805291       19.7310672242       -5.9505811762  MEMB      277             0.0000000000
     32122       277  POPE      H8Y           -33.4142663669       21.1004811907       -5.8220647966  MEMB      277             0.0000000000
     32123       277  POPE      C39           -31.4412372854       21.3832469390       -4.8201737255  MEMB      277             0.0000000000
     32124       277  POPE      H9X           -30.4109182799       21.1203513529       -5.1421209444  MEMB      277             0.0000000000
     32125       277  POPE      H9Y           -31.7223496472       20.9150337479       -3.8526651551  MEMB      277             0.0000000000
     32126       277  POPE      C310          -31.4057243772       22.8954854670       -4.7049404267  MEMB      277             0.0000000000
     32127       277  POPE      H10X          -31.1212441362       23.4275685592       -5.6378279580  MEMB      277             0.0000000000
     32128       277  POPE      H10Y          -30.5807956785       23.1904246391       -4.0216943061  MEMB      277             0.0000000000
     32129       277  POPE      C311          -32.7219587072       23.5224383407       -4.2756548894  MEMB      277             0.0000000000
     32130       277  POPE      H11X          -33.5098036185       23.3971833112       -5.0489157645  MEMB      277             0.0000000000
     32131       277  POPE      H11Y          -32.5963826806       24.6191693409       -4.1502252894  MEMB      277             0.0000000000
     32132       277  POPE      C312          -33.2019441700       22.9841155249       -2.9386040579  MEMB      277             0.0000000000
     32133       277  POPE      H12X          -32.3802321933       22.8579302130       -2.2015902569  MEMB      277             0.0000000000
     32134       277  POPE      H12Y          -33.4383890576       21.9421779806       -3.2432030557  MEMB      277             0.0000000000
     32135       277  POPE      C313          -34.3926079631       23.5677170437       -2.3010109595  MEMB      277             0.0000000000
     32136       277  POPE      H13X          -35.2912828480       23.4844987880       -2.9489142742  MEMB      277             0.0000000000
     32137       277  POPE      H13Y          -34.2379377957       24.6648118255       -2.3833594448  MEMB      277             0.0000000000
     32138       277  POPE      C314          -34.7408443939       22.9193396388       -0.9961800538  MEMB      277             0.0000000000
     32139       277  POPE      H14X          -33.8785373843       22.7187860192       -0.3249672520  MEMB      277             0.0000000000
     32140       277  POPE      H14Y          -35.1758725895       21.9348078164       -1.2714407214  MEMB      277             0.0000000000
     32141       277  POPE      C315          -35.6506241610       23.7412077769       -0.1328272997  MEMB      277             0.0000000000
     32142       277  POPE      H15X          -35.8402541017       23.0962196298        0.7516794540  MEMB      277             0.0000000000
     32143       277  POPE      H15Y          -36.6419141508       23.7977268668       -0.6312938928  MEMB      277             0.0000000000
     32144       277  POPE      C316          -35.1593433576       25.0623819422        0.3233552237  MEMB      277             0.0000000000
     32145       277  POPE      H16X          -34.5412490020       25.6481043701       -0.3902346084  MEMB      277             0.0000000000
     32146       277  POPE      H16Y          -34.6221538848       25.0168545660        1.2947851546  MEMB      277             0.0000000000
     32147       277  POPE      H16Z          -36.0099035818       25.7518814049        0.5116603943  MEMB      277             0.0000000000
     32148       278  POPC      N             -37.0215138664      -22.9107978325      -17.3105291969  MEMB      278             0.0000000000
     32149       278  POPC      C12           -36.6171130188      -21.5079315873      -17.8274334959  MEMB      278             0.0000000000
     32150       278  POPC      H12A          -35.8138315210      -21.1215595833      -17.2176340146  MEMB      278             0.0000000000
     32151       278  POPC      H12B          -37.4516594245      -20.8377607699      -17.6831995807  MEMB      278             0.0000000000
     32152       278  POPC      C13           -35.8410816331      -23.7984469592      -17.5918715052  MEMB      278             0.0000000000
     32153       278  POPC      H13A          -36.0854807359      -24.7652307314      -17.1771446005  MEMB      278             0.0000000000
     32154       278  POPC      H13B          -35.5237933468      -23.8160556682      -18.6240623717  MEMB      278             0.0000000000
     32155       278  POPC      H13C          -35.0570993521      -23.3300227116      -17.0153731960  MEMB      278             0.0000000000
     32156       278  POPC      C14           -37.2889591532      -22.9406961907      -15.8160125389  MEMB      278             0.0000000000
     32157       278  POPC      H14A          -37.6071699050      -23.9403171501      -15.5593029804  MEMB      278             0.0000000000
     32158       278  POPC      H14B          -36.4203537282      -22.7095833183      -15.2172543949  MEMB      278             0.0000000000
     32159       278  POPC      H14C          -38.0118733850      -22.1740844979      -15.5791549320  MEMB      278             0.0000000000
     32160       278  POPC      C15           -38.1358359403      -23.5465121015      -18.0685867551  MEMB      278             0.0000000000
     32161       278  POPC      H15A          -38.2135542181      -24.5565016110      -17.6940454971  MEMB      278             0.0000000000
     32162       278  POPC      H15B          -37.8246644850      -23.7156029474      -19.0888713170  MEMB      278             0.0000000000
     32163       278  POPC      H15C          -39.0884281684      -23.0440191989      -17.9881567847  MEMB      278             0.0000000000
     32164       278  POPC      C11           -36.1201038864      -21.3068119598      -19.3021682440  MEMB      278             0.0000000000
     32165       278  POPC      H11A          -35.1770858692      -21.8918055775      -19.3552749303  MEMB      278             0.0000000000
     32166       278  POPC      H11B          -35.8994633676      -20.2584557672      -19.5964265199  MEMB      278             0.0000000000
     32167       278  POPC      P             -38.2680056580      -20.8593178045      -20.6912989849  MEMB      278             0.0000000000
     32168       278  POPC      O13           -39.4358588790      -21.7663606300      -20.7939741801  MEMB      278             0.0000000000
     32169       278  POPC      O14           -37.8699704634      -20.0218061469      -21.8793682463  MEMB      278             0.0000000000
     32170       278  POPC      O12           -37.0848086510      -21.7920148839      -20.2213268447  MEMB      278             0.0000000000
     32171       278  POPC      O11           -38.4550834709      -19.8494845452      -19.4974299727  MEMB      278             0.0000000000
     32172       278  POPC      C1            -39.6545298495      -20.0900784816      -18.6914359053  MEMB      278             0.0000000000
     32173       278  POPC      HA            -39.6174639217      -21.0494968920      -18.1324516109  MEMB      278             0.0000000000
     32174       278  POPC      HB            -40.5597660737      -20.0431073500      -19.3338236198  MEMB      278             0.0000000000
     32175       278  POPC      C2            -39.9049215906      -19.0093276668      -17.6070168583  MEMB      278             0.0000000000
     32176       278  POPC      HS            -40.1754413847      -18.0209514865      -18.0362632947  MEMB      278             0.0000000000
     32177       278  POPC      O21           -38.7165963873      -18.9216313405      -16.8587155797  MEMB      278             0.0000000000
     32178       278  POPC      C21           -38.5655253485      -17.9574039758      -15.9574125303  MEMB      278             0.0000000000
     32179       278  POPC      O22           -39.2896983526      -16.9712940185      -15.8249960751  MEMB      278             0.0000000000
     32180       278  POPC      C22           -37.1194889976      -18.0669462492      -15.3990027259  MEMB      278             0.0000000000
     32181       278  POPC      H2R           -36.8767291817      -17.1499354670      -14.8206605954  MEMB      278             0.0000000000
     32182       278  POPC      H2S           -36.3412946558      -18.1314125711      -16.1893057679  MEMB      278             0.0000000000
     32183       278  POPC      C3            -41.1496244047      -19.3258309067      -16.7112602617  MEMB      278             0.0000000000
     32184       278  POPC      HX            -42.0052065531      -19.5254820254      -17.3912893205  MEMB      278             0.0000000000
     32185       278  POPC      HY            -41.5217335933      -18.4748754466      -16.1015636815  MEMB      278             0.0000000000
     32186       278  POPC      O31           -40.8921511774      -20.4832041228      -15.8583325745  MEMB      278             0.0000000000
     32187       278  POPC      C31           -41.7064040991      -20.7972858671      -14.8721239240  MEMB      278             0.0000000000
     32188       278  POPC      O32           -42.6811854218      -20.1931788542      -14.4661612158  MEMB      278             0.0000000000
     32189       278  POPC      C32           -41.1305341702      -22.1477937815      -14.4295031999  MEMB      278             0.0000000000
     32190       278  POPC      H2X           -40.7241828712      -21.8345249233      -13.4440779163  MEMB      278             0.0000000000
     32191       278  POPC      H2Y           -40.3151467418      -22.4453995621      -15.1229691281  MEMB      278             0.0000000000
     32192       278  POPC      C23           -36.9896322939      -19.2559703914      -14.4220129583  MEMB      278             0.0000000000
     32193       278  POPC      H3R           -35.9048835362      -19.3312854810      -14.1940466408  MEMB      278             0.0000000000
     32194       278  POPC      H3S           -37.3308007768      -20.2085265471      -14.8808830687  MEMB      278             0.0000000000
     32195       278  POPC      C24           -37.7577724784      -18.9710404726      -13.1125436924  MEMB      278             0.0000000000
     32196       278  POPC      H4R           -38.8355049202      -18.9653001788      -13.3823228390  MEMB      278             0.0000000000
     32197       278  POPC      H4S           -37.4636552441      -17.9533171304      -12.7777973918  MEMB      278             0.0000000000
     32198       278  POPC      C25           -37.6397639063      -20.1150979344      -12.0639790764  MEMB      278             0.0000000000
     32199       278  POPC      H5R           -36.5591719922      -20.3703791221      -12.1023684819  MEMB      278             0.0000000000
     32200       278  POPC      H5S           -38.1881305815      -20.9869081304      -12.4805870712  MEMB      278             0.0000000000
     32201       278  POPC      C26           -38.0964430394      -19.7245114528      -10.6740124224  MEMB      278             0.0000000000
     32202       278  POPC      H6R           -37.8504864435      -18.6622715879      -10.4607689870  MEMB      278             0.0000000000
     32203       278  POPC      H6S           -37.3766068174      -20.2440251085      -10.0059839426  MEMB      278             0.0000000000
     32204       278  POPC      C27           -39.5378836872      -20.1888938104      -10.2816855874  MEMB      278             0.0000000000
     32205       278  POPC      H7R           -39.5443838186      -21.2722175387      -10.0353352368  MEMB      278             0.0000000000
     32206       278  POPC      H7S           -40.2161378934      -20.2803364526      -11.1568594882  MEMB      278             0.0000000000
     32207       278  POPC      C28           -40.3275496232      -19.5043395665       -9.1346165653  MEMB      278             0.0000000000
     32208       278  POPC      H8R           -39.8216583498      -19.5688054349       -8.1475809097  MEMB      278             0.0000000000
     32209       278  POPC      H8S           -41.3126078245      -19.9873280804       -8.9593930197  MEMB      278             0.0000000000
     32210       278  POPC      C29           -40.7445108471      -18.0516595342       -9.4516099453  MEMB      278             0.0000000000
     32211       278  POPC      H91           -40.6035145040      -17.7744560144      -10.5067307811  MEMB      278             0.0000000000
     32212       278  POPC      C210          -41.1074526623      -17.0945951141       -8.6176434213  MEMB      278             0.0000000000
     32213       278  POPC      H101          -41.4889486266      -16.1234492537       -8.9659772683  MEMB      278             0.0000000000
     32214       278  POPC      C211          -41.2735684894      -17.2292000132       -7.1583462352  MEMB      278             0.0000000000
     32215       278  POPC      H11R          -41.5927274653      -18.2602590059       -6.8949535308  MEMB      278             0.0000000000
     32216       278  POPC      H11S          -42.0517686418      -16.5423470218       -6.7621667387  MEMB      278             0.0000000000
     32217       278  POPC      C212          -40.0326999476      -17.0215353536       -6.1820212473  MEMB      278             0.0000000000
     32218       278  POPC      H12R          -39.6098536894      -16.0124303097       -6.3749695249  MEMB      278             0.0000000000
     32219       278  POPC      H12S          -39.3212305693      -17.8076747036       -6.5138592341  MEMB      278             0.0000000000
     32220       278  POPC      C213          -40.4141967837      -17.1535792354       -4.7082966781  MEMB      278             0.0000000000
     32221       278  POPC      H13R          -40.7064221765      -18.2197332694       -4.5976588133  MEMB      278             0.0000000000
     32222       278  POPC      H13S          -41.2347904397      -16.4619272172       -4.4209569239  MEMB      278             0.0000000000
     32223       278  POPC      C214          -39.3987981039      -16.9603982490       -3.6638161239  MEMB      278             0.0000000000
     32224       278  POPC      H14R          -39.9167417791      -16.9626227143       -2.6809375280  MEMB      278             0.0000000000
     32225       278  POPC      H14S          -39.0268364956      -15.9371772785       -3.8851407950  MEMB      278             0.0000000000
     32226       278  POPC      C215          -38.3963503894      -18.0794598323       -3.6034150196  MEMB      278             0.0000000000
     32227       278  POPC      H15R          -37.8757096721      -18.1135198862       -4.5842799864  MEMB      278             0.0000000000
     32228       278  POPC      H15S          -38.8922386260      -19.0505287546       -3.3902455597  MEMB      278             0.0000000000
     32229       278  POPC      C216          -37.4207258894      -17.6681894918       -2.4958573388  MEMB      278             0.0000000000
     32230       278  POPC      H16R          -38.0460741076      -17.3603206073       -1.6307126656  MEMB      278             0.0000000000
     32231       278  POPC      H16S          -36.8165040504      -16.7894958592       -2.8075228132  MEMB      278             0.0000000000
     32232       278  POPC      C217          -36.4997386760      -18.8386146056       -2.2140626559  MEMB      278             0.0000000000
     32233       278  POPC      H17R          -37.0305161496      -19.8118945515       -2.2870181518  MEMB      278             0.0000000000
     32234       278  POPC      H17S          -36.2472465609      -18.8093142679       -1.1325327710  MEMB      278             0.0000000000
     32235       278  POPC      C218          -35.1880264815      -18.9004067780       -3.1265719005  MEMB      278             0.0000000000
     32236       278  POPC      H18R          -34.7170692880      -17.9143387771       -2.9260974478  MEMB      278             0.0000000000
     32237       278  POPC      H18S          -35.4862460027      -19.0300741357       -4.1889147204  MEMB      278             0.0000000000
     32238       278  POPC      H18T          -34.4876384211      -19.7308687197       -2.8939554350  MEMB      278             0.0000000000
     32239       278  POPC      C33           -42.1078806000      -23.2779761022      -14.4492308865  MEMB      278             0.0000000000
     32240       278  POPC      H3X           -42.0686147155      -23.7477270886      -15.4552693369  MEMB      278             0.0000000000
     32241       278  POPC      H3Y           -43.1113882133      -22.8472837054      -14.2447851888  MEMB      278             0.0000000000
     32242       278  POPC      C34           -41.7934147709      -24.3178421821      -13.2645397449  MEMB      278             0.0000000000
     32243       278  POPC      H4X           -42.5022128244      -25.1720309260      -13.3123731203  MEMB      278             0.0000000000
     32244       278  POPC      H4Y           -41.9319632409      -23.7822150370      -12.3010934505  MEMB      278             0.0000000000
     32245       278  POPC      C35           -40.4410651400      -25.0771858956      -13.3289049514  MEMB      278             0.0000000000
     32246       278  POPC      H5X           -39.9113750807      -25.1467160795      -14.3030275114  MEMB      278             0.0000000000
     32247       278  POPC      H5Y           -40.7285590971      -26.1258390873      -13.1008808547  MEMB      278             0.0000000000
     32248       278  POPC      C36           -39.4548941105      -24.5227872849      -12.3157051587  MEMB      278             0.0000000000
     32249       278  POPC      H6X           -39.2723874313      -23.4476852589      -12.5282321229  MEMB      278             0.0000000000
     32250       278  POPC      H6Y           -38.4627234366      -25.0140396255      -12.4083857013  MEMB      278             0.0000000000
     32251       278  POPC      C37           -39.8771599105      -24.7230203999      -10.8550557536  MEMB      278             0.0000000000
     32252       278  POPC      H7X           -40.0453566063      -25.7994430807      -10.6374666211  MEMB      278             0.0000000000
     32253       278  POPC      H7Y           -40.7845591871      -24.1496309555      -10.5683984422  MEMB      278             0.0000000000
     32254       278  POPC      C38           -38.7294981728      -24.1612732685       -9.8950082198  MEMB      278             0.0000000000
     32255       278  POPC      H8X           -38.6423258084      -23.0878171196      -10.1677968637  MEMB      278             0.0000000000
     32256       278  POPC      H8Y           -37.7746579425      -24.6846998342      -10.1155206188  MEMB      278             0.0000000000
     32257       278  POPC      C39           -39.1083488284      -24.4844435576       -8.4053736567  MEMB      278             0.0000000000
     32258       278  POPC      H9X           -39.1265605896      -25.5852887213       -8.2566146982  MEMB      278             0.0000000000
     32259       278  POPC      H9Y           -40.1292435159      -24.1890767206       -8.0815625865  MEMB      278             0.0000000000
     32260       278  POPC      C310          -38.0837797893      -24.1459264142       -7.3192058908  MEMB      278             0.0000000000
     32261       278  POPC      H10X          -37.0434454227      -24.4814522260       -7.5178180584  MEMB      278             0.0000000000
     32262       278  POPC      H10Y          -38.4474439138      -24.6152299211       -6.3801513039  MEMB      278             0.0000000000
     32263       278  POPC      C311          -38.0592728148      -22.6527449357       -7.1353997518  MEMB      278             0.0000000000
     32264       278  POPC      H11X          -39.0169097666      -22.0916607739       -7.0860362402  MEMB      278             0.0000000000
     32265       278  POPC      H11Y          -37.5217328666      -22.2340800343       -8.0129482938  MEMB      278             0.0000000000
     32266       278  POPC      C312          -37.2309739830      -22.1011548356       -5.9756900782  MEMB      278             0.0000000000
     32267       278  POPC      H12X          -37.0874885969      -21.0024532919       -6.0568555951  MEMB      278             0.0000000000
     32268       278  POPC      H12Y          -36.2592338059      -22.6387361913       -6.0080721566  MEMB      278             0.0000000000
     32269       278  POPC      C313          -37.8256105517      -22.4910014772       -4.5656649815  MEMB      278             0.0000000000
     32270       278  POPC      H13X          -37.1274463809      -22.1241689358       -3.7831548005  MEMB      278             0.0000000000
     32271       278  POPC      H13Y          -37.9650752793      -23.5869262773       -4.4481077734  MEMB      278             0.0000000000
     32272       278  POPC      C314          -39.2027125427      -21.9071170395       -4.3291244234  MEMB      278             0.0000000000
     32273       278  POPC      H14X          -39.9354177304      -22.3442096037       -5.0407519532  MEMB      278             0.0000000000
     32274       278  POPC      H14Y          -39.0907903689      -20.8209189362       -4.5339848088  MEMB      278             0.0000000000
     32275       278  POPC      C315          -39.6235265237      -22.1144192389       -2.8343770365  MEMB      278             0.0000000000
     32276       278  POPC      H15X          -38.8772912809      -21.6209528093       -2.1756321274  MEMB      278             0.0000000000
     32277       278  POPC      H15Y          -39.5938741327      -23.1583096159       -2.4552539740  MEMB      278             0.0000000000
     32278       278  POPC      C316          -41.0295689605      -21.6341084279       -2.5159446888  MEMB      278             0.0000000000
     32279       278  POPC      H16X          -41.3320623239      -21.9127715697       -1.4838761043  MEMB      278             0.0000000000
     32280       278  POPC      H16Y          -41.7165389686      -22.1331858797       -3.2324043289  MEMB      278             0.0000000000
     32281       278  POPC      H16Z          -41.1062184765      -20.5431491470       -2.7115301139  MEMB      278             0.0000000000
     32282       279  POPE      N              33.4723989868      -19.7676782972      -17.2544235652  MEMB      279             0.0000000000
     32283       279  POPE      HN1            32.6797983286      -19.1249775039      -17.0536255335  MEMB      279             0.0000000000
     32284       279  POPE      HN2            33.4458618891      -20.5831049369      -16.6094622563  MEMB      279             0.0000000000
     32285       279  POPE      HN3            34.3609033706      -19.2812244424      -17.0187912932  MEMB      279             0.0000000000
     32286       279  POPE      C12            33.4315648514      -20.3516210058      -18.6772268626  MEMB      279             0.0000000000
     32287       279  POPE      H12A           33.7542614047      -19.5540791251      -19.3801599562  MEMB      279             0.0000000000
     32288       279  POPE      H12B           32.4054675145      -20.7701213620      -18.7566176840  MEMB      279             0.0000000000
     32289       279  POPE      C11            34.2434562021      -21.6800580006      -18.7747404463  MEMB      279             0.0000000000
     32290       279  POPE      H11A           34.1263860500      -22.1466230137      -19.7762056461  MEMB      279             0.0000000000
     32291       279  POPE      H11B           33.8017726514      -22.4557133676      -18.1132305604  MEMB      279             0.0000000000
     32292       279  POPE      P              36.6881563892      -21.1640464294      -19.5342276483  MEMB      279             0.0000000000
     32293       279  POPE      O13            37.0719390456      -19.7381518147      -19.5031651301  MEMB      279             0.0000000000
     32294       279  POPE      O14            36.1455362510      -21.6671383950      -20.7898620642  MEMB      279             0.0000000000
     32295       279  POPE      O11            37.9577607331      -22.0527069158      -19.0390040839  MEMB      279             0.0000000000
     32296       279  POPE      O12            35.6445771371      -21.4897215409      -18.4273501969  MEMB      279             0.0000000000
     32297       279  POPE      C1             38.6358269879      -21.6954658423      -17.7935552950  MEMB      279             0.0000000000
     32298       279  POPE      HA             38.2150934716      -20.8447546439      -17.2159786559  MEMB      279             0.0000000000
     32299       279  POPE      HB             39.6148881349      -21.2520365945      -18.0748579177  MEMB      279             0.0000000000
     32300       279  POPE      C2             38.7318394626      -22.9002003227      -16.8926651920  MEMB      279             0.0000000000
     32301       279  POPE      HS             39.2007049015      -23.7473339562      -17.4375053169  MEMB      279             0.0000000000
     32302       279  POPE      O21            37.3864392595      -23.2681448387      -16.5614191917  MEMB      279             0.0000000000
     32303       279  POPE      C21            37.1290426956      -24.3881977686      -16.0035063676  MEMB      279             0.0000000000
     32304       279  POPE      O22            37.8658637967      -25.2009809306      -15.5126723771  MEMB      279             0.0000000000
     32305       279  POPE      C22            35.6240726609      -24.3529182312      -15.7711239731  MEMB      279             0.0000000000
     32306       279  POPE      H2R            35.1245429616      -24.2705000060      -16.7600619094  MEMB      279             0.0000000000
     32307       279  POPE      H2S            35.2573294871      -23.3818611195      -15.3750573477  MEMB      279             0.0000000000
     32308       279  POPE      C3             39.4899920233      -22.6673250308      -15.5163469407  MEMB      279             0.0000000000
     32309       279  POPE      HX             40.5574843549      -22.7018559876      -15.8222697673  MEMB      279             0.0000000000
     32310       279  POPE      HY             39.4159152552      -23.5491698411      -14.8446450500  MEMB      279             0.0000000000
     32311       279  POPE      O31            39.1766423669      -21.4132442224      -14.8807855795  MEMB      279             0.0000000000
     32312       279  POPE      C31            38.1760422071      -21.3632200224      -13.9919096283  MEMB      279             0.0000000000
     32313       279  POPE      O32            37.4719619798      -22.2490255571      -13.5782969905  MEMB      279             0.0000000000
     32314       279  POPE      C32            38.1762248077      -19.9982671335      -13.3574712508  MEMB      279             0.0000000000
     32315       279  POPE      H2X            39.2089721821      -19.6331946126      -13.1717959023  MEMB      279             0.0000000000
     32316       279  POPE      H2Y            37.6509939259      -20.0650971923      -12.3807485305  MEMB      279             0.0000000000
     32317       279  POPE      C23            35.1400248914      -25.6407556867      -15.2038279373  MEMB      279             0.0000000000
     32318       279  POPE      H3R            35.3740120563      -26.4756517578      -15.8984642083  MEMB      279             0.0000000000
     32319       279  POPE      H3S            34.0377126682      -25.5970109889      -15.3354149899  MEMB      279             0.0000000000
     32320       279  POPE      C24            35.3913687192      -25.9127821275      -13.7465846113  MEMB      279             0.0000000000
     32321       279  POPE      H4R            36.4765354375      -26.1204948461      -13.6300087610  MEMB      279             0.0000000000
     32322       279  POPE      H4S            34.9343254007      -26.8831897556      -13.4572035668  MEMB      279             0.0000000000
     32323       279  POPE      C25            34.9978241368      -24.7194408081      -12.9190081643  MEMB      279             0.0000000000
     32324       279  POPE      H5R            33.8964372535      -24.6164000681      -13.0222109342  MEMB      279             0.0000000000
     32325       279  POPE      H5S            35.5458151334      -23.7955425720      -13.2026255352  MEMB      279             0.0000000000
     32326       279  POPE      C26            35.4404616745      -24.7563489180      -11.4464156230  MEMB      279             0.0000000000
     32327       279  POPE      H6R            35.0541236931      -25.6999522381      -11.0051939872  MEMB      279             0.0000000000
     32328       279  POPE      H6S            34.9121304997      -23.9911018455      -10.8384812537  MEMB      279             0.0000000000
     32329       279  POPE      C27            36.9878515788      -24.6681385299      -11.2636611959  MEMB      279             0.0000000000
     32330       279  POPE      H7R            37.3070872126      -23.6806983378      -11.6603620933  MEMB      279             0.0000000000
     32331       279  POPE      H7S            37.5025992427      -25.4065202355      -11.9149280133  MEMB      279             0.0000000000
     32332       279  POPE      C28            37.4298789578      -24.7385474608       -9.7966646307  MEMB      279             0.0000000000
     32333       279  POPE      H8R            37.2064711890      -25.7751993736       -9.4653607055  MEMB      279             0.0000000000
     32334       279  POPE      H8S            36.7544497705      -24.0880702391       -9.2008497055  MEMB      279             0.0000000000
     32335       279  POPE      C29            38.8927536777      -24.5668702856       -9.6051480245  MEMB      279             0.0000000000
     32336       279  POPE      H91            39.5163678318      -25.4608694423       -9.7530351448  MEMB      279             0.0000000000
     32337       279  POPE      C210           39.5459823744      -23.3842633365       -9.4898299932  MEMB      279             0.0000000000
     32338       279  POPE      H101           40.5919073948      -23.4742650235       -9.1612871690  MEMB      279             0.0000000000
     32339       279  POPE      C211           38.8575127974      -22.0789189908       -9.4848151137  MEMB      279             0.0000000000
     32340       279  POPE      H11R           37.8366836218      -22.1209507925       -9.9212350927  MEMB      279             0.0000000000
     32341       279  POPE      H11S           39.4095670588      -21.3008190875      -10.0541284130  MEMB      279             0.0000000000
     32342       279  POPE      C212           38.8040197508      -21.3572027187       -8.0746571660  MEMB      279             0.0000000000
     32343       279  POPE      H12R           38.5893375700      -20.2774872348       -8.2244811200  MEMB      279             0.0000000000
     32344       279  POPE      H12S           39.7888139054      -21.4403414501       -7.5671248711  MEMB      279             0.0000000000
     32345       279  POPE      C213           37.8878577281      -22.0761566932       -7.0765839979  MEMB      279             0.0000000000
     32346       279  POPE      H13R           38.2806062181      -23.1084616382       -6.9565153682  MEMB      279             0.0000000000
     32347       279  POPE      H13S           36.8150237696      -22.0060622219       -7.3566466981  MEMB      279             0.0000000000
     32348       279  POPE      C214           37.9324641993      -21.4821341589       -5.6049178436  MEMB      279             0.0000000000
     32349       279  POPE      H14R           37.3506362284      -20.5362011850       -5.6366713994  MEMB      279             0.0000000000
     32350       279  POPE      H14S           38.9600184172      -21.1849814572       -5.3046613867  MEMB      279             0.0000000000
     32351       279  POPE      C215           37.3497149789      -22.3705463946       -4.5317125237  MEMB      279             0.0000000000
     32352       279  POPE      H15R           37.8721199813      -23.3293226733       -4.3263775717  MEMB      279             0.0000000000
     32353       279  POPE      H15S           36.3180355341      -22.6504091654       -4.8344257705  MEMB      279             0.0000000000
     32354       279  POPE      C216           37.3811680604      -21.5549759715       -3.1850858087  MEMB      279             0.0000000000
     32355       279  POPE      H16R           36.9321001185      -20.5668060953       -3.4221070896  MEMB      279             0.0000000000
     32356       279  POPE      H16S           38.4647601705      -21.4061389842       -2.9901595057  MEMB      279             0.0000000000
     32357       279  POPE      C217           36.7208652652      -22.2263029081       -2.0289929413  MEMB      279             0.0000000000
     32358       279  POPE      H17R           36.6055853511      -21.5160925084       -1.1824522955  MEMB      279             0.0000000000
     32359       279  POPE      H17S           37.3966085296      -23.0186172101       -1.6417855179  MEMB      279             0.0000000000
     32360       279  POPE      C218           35.3973695422      -22.9503424721       -2.3649080831  MEMB      279             0.0000000000
     32361       279  POPE      H18R           35.0397111047      -23.5410795989       -1.4946046207  MEMB      279             0.0000000000
     32362       279  POPE      H18S           35.5129214949      -23.7127826834       -3.1646919545  MEMB      279             0.0000000000
     32363       279  POPE      H18T           34.5948596396      -22.2565387331       -2.6949613713  MEMB      279             0.0000000000
     32364       279  POPE      C33            37.3887823769      -19.1000648776      -14.3305144778  MEMB      279             0.0000000000
     32365       279  POPE      H3X            37.5039411399      -19.5134635158      -15.3552881357  MEMB      279             0.0000000000
     32366       279  POPE      H3Y            37.8093289788      -18.0907394806      -14.1337302052  MEMB      279             0.0000000000
     32367       279  POPE      C34            35.9428470994      -19.0726847475      -13.9834719496  MEMB      279             0.0000000000
     32368       279  POPE      H4X            35.5759198182      -20.1207638142      -13.9486074145  MEMB      279             0.0000000000
     32369       279  POPE      H4Y            35.3651394014      -18.5635469358      -14.7843173653  MEMB      279             0.0000000000
     32370       279  POPE      C35            35.5942974537      -18.4164912455      -12.5874694023  MEMB      279             0.0000000000
     32371       279  POPE      H5X            35.9403564365      -17.3679155460      -12.7101604842  MEMB      279             0.0000000000
     32372       279  POPE      H5Y            36.1822654996      -18.8574634382      -11.7543080314  MEMB      279             0.0000000000
     32373       279  POPE      C36            34.0668774907      -18.2973798847      -12.2264340741  MEMB      279             0.0000000000
     32374       279  POPE      H6X            33.6315238511      -19.3124123869      -12.1060291254  MEMB      279             0.0000000000
     32375       279  POPE      H6Y            33.5020465231      -17.7925242567      -13.0390892350  MEMB      279             0.0000000000
     32376       279  POPE      C37            33.9450154878      -17.4904808617      -10.8717609299  MEMB      279             0.0000000000
     32377       279  POPE      H7X            33.9104347190      -16.4053068154      -11.1073913009  MEMB      279             0.0000000000
     32378       279  POPE      H7Y            34.8673059093      -17.7060131969      -10.2910309513  MEMB      279             0.0000000000
     32379       279  POPE      C38            32.6385433186      -17.8556065128      -10.1690874472  MEMB      279             0.0000000000
     32380       279  POPE      H8X            32.4031642162      -18.9080559410      -10.4360481439  MEMB      279             0.0000000000
     32381       279  POPE      H8Y            31.8004185332      -17.2467126932      -10.5704802777  MEMB      279             0.0000000000
     32382       279  POPE      C39            32.6381973220      -17.5242797502       -8.6265068274  MEMB      279             0.0000000000
     32383       279  POPE      H9X            32.4502118567      -16.4386638227       -8.4836064547  MEMB      279             0.0000000000
     32384       279  POPE      H9Y            33.6941930199      -17.7040155393       -8.3317374878  MEMB      279             0.0000000000
     32385       279  POPE      C310           31.7727876186      -18.3953561890       -7.7260719910  MEMB      279             0.0000000000
     32386       279  POPE      H10X           30.7089397607      -18.4368191659       -8.0436087894  MEMB      279             0.0000000000
     32387       279  POPE      H10Y           31.8273469617      -17.8778590939       -6.7444704700  MEMB      279             0.0000000000
     32388       279  POPE      C311           32.1492366984      -19.8930079808       -7.5904829724  MEMB      279             0.0000000000
     32389       279  POPE      H11X           33.2093573277      -20.0313586494       -7.2882839419  MEMB      279             0.0000000000
     32390       279  POPE      H11Y           31.9309496220      -20.5565322089       -8.4544323132  MEMB      279             0.0000000000
     32391       279  POPE      C312           31.3387598602      -20.5687749022       -6.4661840340  MEMB      279             0.0000000000
     32392       279  POPE      H12X           31.8988684269      -21.4766794638       -6.1558474425  MEMB      279             0.0000000000
     32393       279  POPE      H12Y           30.3093219465      -20.7607175267       -6.8373131350  MEMB      279             0.0000000000
     32394       279  POPE      C313           31.2783678527      -19.7581396137       -5.1486864106  MEMB      279             0.0000000000
     32395       279  POPE      H13X           30.7675498372      -18.7908773967       -5.3430827632  MEMB      279             0.0000000000
     32396       279  POPE      H13Y           32.3051234214      -19.4198068309       -4.8925130837  MEMB      279             0.0000000000
     32397       279  POPE      C314           30.7530942846      -20.5679069030       -3.9984640808  MEMB      279             0.0000000000
     32398       279  POPE      H14X           30.7154106527      -21.6641750857       -4.1748074033  MEMB      279             0.0000000000
     32399       279  POPE      H14Y           29.6845460540      -20.3033009938       -3.8484328702  MEMB      279             0.0000000000
     32400       279  POPE      C315           31.4900320181      -20.4276093869       -2.6560032214  MEMB      279             0.0000000000
     32401       279  POPE      H15X           31.3098548566      -19.4180747831       -2.2285725214  MEMB      279             0.0000000000
     32402       279  POPE      H15Y           32.5522421955      -20.5886195028       -2.9390344561  MEMB      279             0.0000000000
     32403       279  POPE      C316           31.1009408764      -21.3622629569       -1.4997461973  MEMB      279             0.0000000000
     32404       279  POPE      H16X           30.0271624012      -21.1299021052       -1.3344330624  MEMB      279             0.0000000000
     32405       279  POPE      H16Y           31.7942165236      -21.1169695063       -0.6669673096  MEMB      279             0.0000000000
     32406       279  POPE      H16Z           31.2649701456      -22.4191838672       -1.8003022953  MEMB      279             0.0000000000
     32407       280  POPE      N               6.0070115761       49.0578948895      -20.9072241887  MEMB      280             0.0000000000
     32408       280  POPE      HN1             5.7390196077       48.9434405457      -21.9055629292  MEMB      280             0.0000000000
     32409       280  POPE      HN2             6.5080766841       48.1501553624      -20.8263379612  MEMB      280             0.0000000000
     32410       280  POPE      HN3             5.1731185001       49.1295264489      -20.2898983494  MEMB      280             0.0000000000
     32411       280  POPE      C12             6.8709343886       50.3050686330      -20.6454403006  MEMB      280             0.0000000000
     32412       280  POPE      H12A            6.0972569489       51.0894595440      -20.5023486747  MEMB      280             0.0000000000
     32413       280  POPE      H12B            7.3949259637       50.4015984481      -21.6203434931  MEMB      280             0.0000000000
     32414       280  POPE      C11             7.7236509373       50.2185150261      -19.3473257203  MEMB      280             0.0000000000
     32415       280  POPE      H11A            7.0812831708       50.2593045998      -18.4417756490  MEMB      280             0.0000000000
     32416       280  POPE      H11B            8.3376820910       51.1342743353      -19.2106814019  MEMB      280             0.0000000000
     32417       280  POPE      P               9.5592418496       48.7047518307      -18.2021024000  MEMB      280             0.0000000000
     32418       280  POPE      O13             9.9632445630       49.9961547505      -17.5460875769  MEMB      280             0.0000000000
     32419       280  POPE      O14            10.6394049710       47.7124715279      -18.6653316145  MEMB      280             0.0000000000
     32420       280  POPE      O11             8.6030362318       47.9474578785      -17.2530768095  MEMB      280             0.0000000000
     32421       280  POPE      O12             8.5643970864       49.0211038632      -19.4334113899  MEMB      280             0.0000000000
     32422       280  POPE      C1              7.6708533848       46.9125032035      -17.6947161998  MEMB      280             0.0000000000
     32423       280  POPE      HA              8.0915918030       46.3388559295      -18.5480795739  MEMB      280             0.0000000000
     32424       280  POPE      HB              6.6896766990       47.3130723262      -18.0281194932  MEMB      280             0.0000000000
     32425       280  POPE      C2              7.2963758422       45.9344158159      -16.5646967912  MEMB      280             0.0000000000
     32426       280  POPE      HS              6.5228234988       45.3064549831      -17.0562284424  MEMB      280             0.0000000000
     32427       280  POPE      O21             7.0181093522       46.4945517309      -15.2854317381  MEMB      280             0.0000000000
     32428       280  POPE      C21             6.0023902566       47.2896147263      -15.1235108490  MEMB      280             0.0000000000
     32429       280  POPE      O22             5.0127297865       47.4149640284      -15.8020815604  MEMB      280             0.0000000000
     32430       280  POPE      C22             6.3262129944       48.0580648572      -13.7702965332  MEMB      280             0.0000000000
     32431       280  POPE      H2R             7.4337578391       48.1213252537      -13.8308203885  MEMB      280             0.0000000000
     32432       280  POPE      H2S             6.0252573042       47.3990130916      -12.9280395738  MEMB      280             0.0000000000
     32433       280  POPE      C3              8.5360970658       44.9131316666      -16.1778710541  MEMB      280             0.0000000000
     32434       280  POPE      HX              8.5406969463       44.1494036956      -16.9847287519  MEMB      280             0.0000000000
     32435       280  POPE      HY              8.3575847988       44.4119570022      -15.2025360581  MEMB      280             0.0000000000
     32436       280  POPE      O31             9.7332956922       45.6979776055      -16.1687694222  MEMB      280             0.0000000000
     32437       280  POPE      C31            10.2091065745       46.1046899224      -14.9692781019  MEMB      280             0.0000000000
     32438       280  POPE      O32             9.7162859793       45.8077052431      -13.8855174990  MEMB      280             0.0000000000
     32439       280  POPE      C32            11.4738990347       47.0128262718      -15.2116657119  MEMB      280             0.0000000000
     32440       280  POPE      H2X            11.2340674511       47.6451900997      -16.0930952770  MEMB      280             0.0000000000
     32441       280  POPE      H2Y            12.3722645546       46.3891780280      -15.4074283800  MEMB      280             0.0000000000
     32442       280  POPE      C23             5.7235903385       49.4910973623      -13.6694263437  MEMB      280             0.0000000000
     32443       280  POPE      H3R             5.8480454738       49.8269231317      -12.6177359265  MEMB      280             0.0000000000
     32444       280  POPE      H3S             4.6281499122       49.5079124097      -13.8539488322  MEMB      280             0.0000000000
     32445       280  POPE      C24             6.4113731953       50.5975560225      -14.5847275287  MEMB      280             0.0000000000
     32446       280  POPE      H4R             5.9025615104       51.5474354834      -14.3142460056  MEMB      280             0.0000000000
     32447       280  POPE      H4S             6.1586148317       50.2718848189      -15.6164119595  MEMB      280             0.0000000000
     32448       280  POPE      C25             7.9437293809       50.6632495261      -14.4451459819  MEMB      280             0.0000000000
     32449       280  POPE      H5R             8.2022267823       51.6034584048      -14.9776001164  MEMB      280             0.0000000000
     32450       280  POPE      H5S             8.3845578729       49.7672398156      -14.9321346595  MEMB      280             0.0000000000
     32451       280  POPE      C26             8.4806609456       50.7592243682      -13.0160440430  MEMB      280             0.0000000000
     32452       280  POPE      H6R             9.5024523878       50.5535037433      -13.4006765533  MEMB      280             0.0000000000
     32453       280  POPE      H6S             8.2229361382       49.9714857715      -12.2762015562  MEMB      280             0.0000000000
     32454       280  POPE      C27             8.4896549440       52.0996518914      -12.2734752269  MEMB      280             0.0000000000
     32455       280  POPE      H7R             7.4855311146       52.1723080108      -11.8036058749  MEMB      280             0.0000000000
     32456       280  POPE      H7S             8.6321819469       52.8690729635      -13.0621439097  MEMB      280             0.0000000000
     32457       280  POPE      C28             9.5953120211       52.2311503627      -11.1991448656  MEMB      280             0.0000000000
     32458       280  POPE      H8R            10.5107379226       52.1205446089      -11.8188891316  MEMB      280             0.0000000000
     32459       280  POPE      H8S             9.5322686343       51.4479520543      -10.4136852675  MEMB      280             0.0000000000
     32460       280  POPE      C29             9.4887300516       53.6579949371      -10.5646286582  MEMB      280             0.0000000000
     32461       280  POPE      H91             9.3900467297       54.3452116154      -11.4178550810  MEMB      280             0.0000000000
     32462       280  POPE      C210            9.2911604594       53.9815629601       -9.2716624385  MEMB      280             0.0000000000
     32463       280  POPE      H101            9.1703517461       55.0435216904       -9.0115672221  MEMB      280             0.0000000000
     32464       280  POPE      C211            9.1368093773       53.0856749573       -8.0213159131  MEMB      280             0.0000000000
     32465       280  POPE      H11R            8.8118681038       52.0512001483       -8.2633819072  MEMB      280             0.0000000000
     32466       280  POPE      H11S            8.3168523021       53.4418173492       -7.3616533633  MEMB      280             0.0000000000
     32467       280  POPE      C212           10.3985748225       53.0444534233       -7.1743284912  MEMB      280             0.0000000000
     32468       280  POPE      H12R           10.6353803891       54.0830624475       -6.8588367208  MEMB      280             0.0000000000
     32469       280  POPE      H12S           11.2421130190       52.7139368169       -7.8173861815  MEMB      280             0.0000000000
     32470       280  POPE      C213           10.1713123343       52.3034974745       -5.8364766806  MEMB      280             0.0000000000
     32471       280  POPE      H13R           10.0168290242       51.2037982119       -5.8699014590  MEMB      280             0.0000000000
     32472       280  POPE      H13S            9.1785062702       52.6897275459       -5.5210667537  MEMB      280             0.0000000000
     32473       280  POPE      C214           11.2476778755       52.6507080420       -4.7746740894  MEMB      280             0.0000000000
     32474       280  POPE      H14R           11.0898769593       53.6172650991       -4.2500914765  MEMB      280             0.0000000000
     32475       280  POPE      H14S           12.2402971083       52.4803976400       -5.2437399556  MEMB      280             0.0000000000
     32476       280  POPE      C215           11.2187661119       51.5919854681       -3.6081469741  MEMB      280             0.0000000000
     32477       280  POPE      H15R           11.5667515927       50.6799180312       -4.1385811468  MEMB      280             0.0000000000
     32478       280  POPE      H15S           10.2265307494       51.4253428839       -3.1369564290  MEMB      280             0.0000000000
     32479       280  POPE      C216           12.3021915871       51.8739387209       -2.5814441797  MEMB      280             0.0000000000
     32480       280  POPE      H16R           12.1038794200       52.8746874119       -2.1415620823  MEMB      280             0.0000000000
     32481       280  POPE      H16S           13.3471452187       51.8206177847       -2.9550067667  MEMB      280             0.0000000000
     32482       280  POPE      C217           12.1853230684       50.9069097266       -1.3381536066  MEMB      280             0.0000000000
     32483       280  POPE      H17R           11.1491988602       50.5453005060       -1.1649302328  MEMB      280             0.0000000000
     32484       280  POPE      H17S           12.2116268198       51.5767152327       -0.4521567091  MEMB      280             0.0000000000
     32485       280  POPE      C218           13.0283124078       49.7116378698       -1.1938036395  MEMB      280             0.0000000000
     32486       280  POPE      H18R           12.6375637302       48.8180092672       -1.7258432436  MEMB      280             0.0000000000
     32487       280  POPE      H18S           13.2040457570       49.4650368950       -0.1248676256  MEMB      280             0.0000000000
     32488       280  POPE      H18T           14.0820969513       49.7418138563       -1.5444448057  MEMB      280             0.0000000000
     32489       280  POPE      C33            11.7028078219       47.9592034571      -14.0458119504  MEMB      280             0.0000000000
     32490       280  POPE      H3X            10.8206552394       48.4614505563      -13.5942862951  MEMB      280             0.0000000000
     32491       280  POPE      H3Y            12.4263781826       48.7540854661      -14.3267558317  MEMB      280             0.0000000000
     32492       280  POPE      C34            12.5330762551       47.2320600040      -12.9386497586  MEMB      280             0.0000000000
     32493       280  POPE      H4X            13.4783350725       46.8137529352      -13.3458672434  MEMB      280             0.0000000000
     32494       280  POPE      H4Y            11.9565452220       46.3641606501      -12.5530543299  MEMB      280             0.0000000000
     32495       280  POPE      C35            13.1177294412       48.0379139471      -11.7507681411  MEMB      280             0.0000000000
     32496       280  POPE      H5X            14.0725536622       48.5225711858      -12.0469761497  MEMB      280             0.0000000000
     32497       280  POPE      H5Y            13.3763376458       47.2589886158      -11.0019569708  MEMB      280             0.0000000000
     32498       280  POPE      C36            12.1157751404       49.0160274219      -11.1583376805  MEMB      280             0.0000000000
     32499       280  POPE      H6X            11.9345880108       49.7563398029      -11.9666879391  MEMB      280             0.0000000000
     32500       280  POPE      H6Y            12.7050835082       49.4657167390      -10.3308013443  MEMB      280             0.0000000000
     32501       280  POPE      C37            10.7577445920       48.4549869628      -10.6676630784  MEMB      280             0.0000000000
     32502       280  POPE      H7X            10.7736202378       47.3473307142      -10.7523189220  MEMB      280             0.0000000000
     32503       280  POPE      H7Y             9.9438306220       48.9656754993      -11.2253926174  MEMB      280             0.0000000000
     32504       280  POPE      C38            10.2514850240       48.6708656127       -9.2799376946  MEMB      280             0.0000000000
     32505       280  POPE      H8X             9.1547205408       48.6642280267       -9.4570958129  MEMB      280             0.0000000000
     32506       280  POPE      H8Y            10.4481413360       49.6641723161       -8.8227853242  MEMB      280             0.0000000000
     32507       280  POPE      C39            10.7539709086       47.7105467543       -8.1596494355  MEMB      280             0.0000000000
     32508       280  POPE      H9X            11.6564941161       48.1819715561       -7.7152041464  MEMB      280             0.0000000000
     32509       280  POPE      H9Y            11.0466389771       46.6791344174       -8.4509479252  MEMB      280             0.0000000000
     32510       280  POPE      C310            9.7225803100       47.7677532593       -7.0910163187  MEMB      280             0.0000000000
     32511       280  POPE      H10X            8.7998363374       47.2372933051       -7.4095700916  MEMB      280             0.0000000000
     32512       280  POPE      H10Y            9.3564876625       48.8115862434       -6.9875276700  MEMB      280             0.0000000000
     32513       280  POPE      C311           10.2744517411       47.2209162387       -5.7372040906  MEMB      280             0.0000000000
     32514       280  POPE      H11X           11.3142521583       47.5511336201       -5.5272225549  MEMB      280             0.0000000000
     32515       280  POPE      H11Y           10.4020618060       46.1247583505       -5.8655561214  MEMB      280             0.0000000000
     32516       280  POPE      C312            9.5016737427       47.7310617125       -4.4279814026  MEMB      280             0.0000000000
     32517       280  POPE      H12X            8.4436306731       47.4017732979       -4.5081978493  MEMB      280             0.0000000000
     32518       280  POPE      H12Y            9.6547206333       48.8314640066       -4.4315037592  MEMB      280             0.0000000000
     32519       280  POPE      C313           10.0714945987       47.2158682024       -3.0585869249  MEMB      280             0.0000000000
     32520       280  POPE      H13X           11.1761662390       47.3079514908       -3.1330327717  MEMB      280             0.0000000000
     32521       280  POPE      H13Y            9.8001288998       46.1468646854       -2.9247464820  MEMB      280             0.0000000000
     32522       280  POPE      C314            9.4352818384       47.9477409499       -1.8956129809  MEMB      280             0.0000000000
     32523       280  POPE      H14X            8.3272828531       48.0193453038       -1.9347488054  MEMB      280             0.0000000000
     32524       280  POPE      H14Y            9.9483164387       48.9272901079       -2.0033165284  MEMB      280             0.0000000000
     32525       280  POPE      C315           10.0178497731       47.2614350787       -0.6221010074  MEMB      280             0.0000000000
     32526       280  POPE      H15X            9.9360955816       47.8416251308        0.3218351376  MEMB      280             0.0000000000
     32527       280  POPE      H15Y           11.0984865099       47.1884764447       -0.8695330173  MEMB      280             0.0000000000
     32528       280  POPE      C316            9.4570112015       45.8673116160       -0.1794687540  MEMB      280             0.0000000000
     32529       280  POPE      H16X            8.3488958094       45.9224616901       -0.1215088273  MEMB      280             0.0000000000
     32530       280  POPE      H16Y            9.7750692960       45.6661495048        0.8658513882  MEMB      280             0.0000000000
     32531       280  POPE      H16Z            9.6871260086       45.0629626076       -0.9104881087  MEMB      280             0.0000000000
     32532       281  POPE      N              -6.4286219933      -41.7267901770      -20.9164491468  MEMB      281             0.0000000000
     32533       281  POPE      HN1            -6.9860384076      -41.5256754114      -21.7711068615  MEMB      281             0.0000000000
     32534       281  POPE      HN2            -6.9326310739      -42.4089438739      -20.3145843381  MEMB      281             0.0000000000
     32535       281  POPE      HN3            -6.4119116843      -40.8082670990      -20.4289697137  MEMB      281             0.0000000000
     32536       281  POPE      C12            -5.0756737596      -42.1816695589      -21.3440585151  MEMB      281             0.0000000000
     32537       281  POPE      H12A           -4.5075192918      -41.3757063812      -21.8558637822  MEMB      281             0.0000000000
     32538       281  POPE      H12B           -5.3276419372      -42.9164717042      -22.1383498514  MEMB      281             0.0000000000
     32539       281  POPE      C11            -4.2340175613      -42.8629614090      -20.2705079967  MEMB      281             0.0000000000
     32540       281  POPE      H11A           -3.2399774419      -43.1798672036      -20.6523141988  MEMB      281             0.0000000000
     32541       281  POPE      H11B           -4.7642251622      -43.7374159007      -19.8363072165  MEMB      281             0.0000000000
     32542       281  POPE      P              -3.5342843734      -42.2521466617      -17.8811537092  MEMB      281             0.0000000000
     32543       281  POPE      O13            -2.3967351873      -41.3751591809      -17.4339159367  MEMB      281             0.0000000000
     32544       281  POPE      O14            -3.4606462545      -43.7129104282      -17.6426948624  MEMB      281             0.0000000000
     32545       281  POPE      O11            -4.9769516574      -41.8212093175      -17.1462419391  MEMB      281             0.0000000000
     32546       281  POPE      O12            -3.8986235956      -41.8194996797      -19.3649779278  MEMB      281             0.0000000000
     32547       281  POPE      C1             -5.2367375139      -40.4728648653      -16.8444429324  MEMB      281             0.0000000000
     32548       281  POPE      HA             -6.3412929020      -40.3969821656      -16.7521380195  MEMB      281             0.0000000000
     32549       281  POPE      HB             -5.0469165424      -39.8303464978      -17.7307042971  MEMB      281             0.0000000000
     32550       281  POPE      C2             -4.6281520493      -40.0672272543      -15.4497829780  MEMB      281             0.0000000000
     32551       281  POPE      HS             -3.5411759525      -40.1873586835      -15.6456716112  MEMB      281             0.0000000000
     32552       281  POPE      O21            -5.1580934680      -40.8672799168      -14.3953881871  MEMB      281             0.0000000000
     32553       281  POPE      C21            -4.2306625942      -41.1266820765      -13.3908814263  MEMB      281             0.0000000000
     32554       281  POPE      O22            -3.0566678342      -40.8237498211      -13.4847763580  MEMB      281             0.0000000000
     32555       281  POPE      C22            -4.9315848396      -41.7401159923      -12.2254071436  MEMB      281             0.0000000000
     32556       281  POPE      H2R            -5.3602192343      -42.6505695140      -12.6962232703  MEMB      281             0.0000000000
     32557       281  POPE      H2S            -5.6755617382      -40.9928150663      -11.8756063513  MEMB      281             0.0000000000
     32558       281  POPE      C3             -4.9711215916      -38.5464356262      -15.1852690492  MEMB      281             0.0000000000
     32559       281  POPE      HX             -6.0206198204      -38.3494195359      -15.4919600382  MEMB      281             0.0000000000
     32560       281  POPE      HY             -4.3133364723      -37.9038823263      -15.8087791960  MEMB      281             0.0000000000
     32561       281  POPE      O31            -4.7450051560      -38.1408808907      -13.7959615253  MEMB      281             0.0000000000
     32562       281  POPE      C31            -5.7723127742      -38.0731858595      -13.0247609023  MEMB      281             0.0000000000
     32563       281  POPE      O32            -6.9697935366      -38.1309646577      -13.3155783428  MEMB      281             0.0000000000
     32564       281  POPE      C32            -5.1929524346      -37.6264362629      -11.6947806373  MEMB      281             0.0000000000
     32565       281  POPE      H2X            -5.1910732757      -36.5281558771      -11.8624047314  MEMB      281             0.0000000000
     32566       281  POPE      H2Y            -4.1568980185      -38.0133630251      -11.5889523490  MEMB      281             0.0000000000
     32567       281  POPE      C23            -3.9157682286      -42.1827311068      -11.1007319853  MEMB      281             0.0000000000
     32568       281  POPE      H3R            -3.0604254229      -41.4834676005      -11.2179509488  MEMB      281             0.0000000000
     32569       281  POPE      H3S            -3.5595294501      -43.2033069849      -11.3573246878  MEMB      281             0.0000000000
     32570       281  POPE      C24            -4.3581067525      -41.9409872551       -9.7187771854  MEMB      281             0.0000000000
     32571       281  POPE      H4R            -4.6090983973      -40.8884950173       -9.4666183734  MEMB      281             0.0000000000
     32572       281  POPE      H4S            -3.5757101599      -42.1331004140       -8.9537485407  MEMB      281             0.0000000000
     32573       281  POPE      C25            -5.5374896776      -42.8658702247       -9.2830959455  MEMB      281             0.0000000000
     32574       281  POPE      H5R            -6.4306590998      -42.5014742385       -9.8342622161  MEMB      281             0.0000000000
     32575       281  POPE      H5S            -5.8587786369      -42.5083549086       -8.2814577753  MEMB      281             0.0000000000
     32576       281  POPE      C26            -5.4717441643      -44.3691263452       -9.4467284185  MEMB      281             0.0000000000
     32577       281  POPE      H6R            -4.5255895039      -44.7827074519       -9.0367735964  MEMB      281             0.0000000000
     32578       281  POPE      H6S            -5.2792277576      -44.6071618582      -10.5147155980  MEMB      281             0.0000000000
     32579       281  POPE      C27            -6.7979645183      -45.0322452159       -9.0096193345  MEMB      281             0.0000000000
     32580       281  POPE      H7R            -6.6615465379      -46.1295436189       -9.1175426014  MEMB      281             0.0000000000
     32581       281  POPE      H7S            -7.5592355907      -44.6158814632       -9.7034701087  MEMB      281             0.0000000000
     32582       281  POPE      C28            -7.2643262824      -44.7308286206       -7.5388951877  MEMB      281             0.0000000000
     32583       281  POPE      H8R            -8.1037223966      -45.4245860727       -7.3188158675  MEMB      281             0.0000000000
     32584       281  POPE      H8S            -7.7906659420      -43.7535497578       -7.4918501042  MEMB      281             0.0000000000
     32585       281  POPE      C29            -6.2943128024      -44.8605987168       -6.3304187241  MEMB      281             0.0000000000
     32586       281  POPE      H91            -5.7449349751      -45.8024236346       -6.1849891833  MEMB      281             0.0000000000
     32587       281  POPE      C210           -5.8904113202      -43.8140574048       -5.5206295827  MEMB      281             0.0000000000
     32588       281  POPE      H101           -5.1153497018      -43.9986960582       -4.7622175351  MEMB      281             0.0000000000
     32589       281  POPE      C211           -6.3033756260      -42.3443790020       -5.5613224574  MEMB      281             0.0000000000
     32590       281  POPE      H11R           -7.4079750323      -42.4065108798       -5.6629123719  MEMB      281             0.0000000000
     32591       281  POPE      H11S           -5.8345178815      -41.7087434392       -6.3426423521  MEMB      281             0.0000000000
     32592       281  POPE      C212           -5.9008375177      -41.5114070954       -4.2974710279  MEMB      281             0.0000000000
     32593       281  POPE      H12R           -6.3213964848      -42.1415276135       -3.4848210437  MEMB      281             0.0000000000
     32594       281  POPE      H12S           -6.3598689202      -40.5191022481       -4.4948092029  MEMB      281             0.0000000000
     32595       281  POPE      C213           -4.3490361621      -41.3418955910       -4.1537761851  MEMB      281             0.0000000000
     32596       281  POPE      H13R           -3.9099683676      -41.1916786518       -5.1632187280  MEMB      281             0.0000000000
     32597       281  POPE      H13S           -3.8532971185      -42.2975699546       -3.8794579775  MEMB      281             0.0000000000
     32598       281  POPE      C214           -3.8879314423      -40.3448307059       -3.1272807677  MEMB      281             0.0000000000
     32599       281  POPE      H14R           -4.2138021303      -39.3966944215       -3.6059947829  MEMB      281             0.0000000000
     32600       281  POPE      H14S           -2.7817999449      -40.2819664224       -3.0445614136  MEMB      281             0.0000000000
     32601       281  POPE      C215           -4.4846187977      -40.2797102148       -1.7164237502  MEMB      281             0.0000000000
     32602       281  POPE      H15R           -4.1311371588      -41.1917698816       -1.1896236476  MEMB      281             0.0000000000
     32603       281  POPE      H15S           -5.5938819053      -40.3330790794       -1.7481725534  MEMB      281             0.0000000000
     32604       281  POPE      C216           -4.0854509251      -39.0856736535       -0.7713352750  MEMB      281             0.0000000000
     32605       281  POPE      H16R           -4.7883432805      -39.1262581735        0.0880911012  MEMB      281             0.0000000000
     32606       281  POPE      H16S           -4.3164907729      -38.2537735703       -1.4705379515  MEMB      281             0.0000000000
     32607       281  POPE      C217           -2.5755202663      -38.9090201069       -0.3971416237  MEMB      281             0.0000000000
     32608       281  POPE      H17R           -2.2959698544      -37.9442873242        0.0776877619  MEMB      281             0.0000000000
     32609       281  POPE      H17S           -2.0807016823      -38.7754876952       -1.3828624531  MEMB      281             0.0000000000
     32610       281  POPE      C218           -1.8896255919      -40.0003510036        0.4529823460  MEMB      281             0.0000000000
     32611       281  POPE      H18R           -0.8860672116      -39.6715326617        0.7980490201  MEMB      281             0.0000000000
     32612       281  POPE      H18S           -1.8781736097      -40.9837950982       -0.0637642635  MEMB      281             0.0000000000
     32613       281  POPE      H18T           -2.5732893470      -40.1976957255        1.3061995989  MEMB      281             0.0000000000
     32614       281  POPE      C33            -5.9811640922      -38.1278120109      -10.4366801839  MEMB      281             0.0000000000
     32615       281  POPE      H3X            -5.9650266088      -39.2261365629      -10.2701152555  MEMB      281             0.0000000000
     32616       281  POPE      H3Y            -7.0301706399      -37.7800166923      -10.5504537989  MEMB      281             0.0000000000
     32617       281  POPE      C34            -5.3695426328      -37.5413195429       -9.1556363983  MEMB      281             0.0000000000
     32618       281  POPE      H4X            -5.5553361776      -36.4463150338       -9.1279437132  MEMB      281             0.0000000000
     32619       281  POPE      H4Y            -4.2759081985      -37.7279622358       -9.2143667650  MEMB      281             0.0000000000
     32620       281  POPE      C35            -5.8072957872      -38.2814446909       -7.8907601760  MEMB      281             0.0000000000
     32621       281  POPE      H5X            -5.1133929405      -37.8293691338       -7.1501880839  MEMB      281             0.0000000000
     32622       281  POPE      H5Y            -5.5609886167      -39.3646867995       -7.8752527450  MEMB      281             0.0000000000
     32623       281  POPE      C36            -7.2987898952      -38.2405928043       -7.5443564506  MEMB      281             0.0000000000
     32624       281  POPE      H6X            -7.9013602054      -38.9516310303       -8.1490508413  MEMB      281             0.0000000000
     32625       281  POPE      H6Y            -7.6681240317      -37.2079546120       -7.7220396719  MEMB      281             0.0000000000
     32626       281  POPE      C37            -7.4403323681      -38.6624429533       -6.0085347900  MEMB      281             0.0000000000
     32627       281  POPE      H7X            -6.6623565343      -38.1120740995       -5.4374226739  MEMB      281             0.0000000000
     32628       281  POPE      H7Y            -7.1853454233      -39.7420572091       -6.0696582335  MEMB      281             0.0000000000
     32629       281  POPE      C38            -8.8621199798      -38.5168977759       -5.4796408438  MEMB      281             0.0000000000
     32630       281  POPE      H8X            -9.2100619358      -37.5383844204       -5.8743162463  MEMB      281             0.0000000000
     32631       281  POPE      H8Y            -8.9295950557      -38.5549572611       -4.3713448328  MEMB      281             0.0000000000
     32632       281  POPE      C39            -9.9166015642      -39.5746788999       -6.0425073640  MEMB      281             0.0000000000
     32633       281  POPE      H9X           -10.0258104800      -39.4935491214       -7.1451463813  MEMB      281             0.0000000000
     32634       281  POPE      H9Y           -10.8467646848      -39.1317119793       -5.6266976941  MEMB      281             0.0000000000
     32635       281  POPE      C310           -9.6884072329      -40.9564838337       -5.6440483028  MEMB      281             0.0000000000
     32636       281  POPE      H10X           -9.1145517324      -40.8904664559       -4.6950213870  MEMB      281             0.0000000000
     32637       281  POPE      H10Y           -9.1309661013      -41.5090701310       -6.4303244387  MEMB      281             0.0000000000
     32638       281  POPE      C311          -11.0174889505      -41.7332669813       -5.4041992300  MEMB      281             0.0000000000
     32639       281  POPE      H11X          -11.4345311258      -41.8697010096       -6.4248770713  MEMB      281             0.0000000000
     32640       281  POPE      H11Y          -11.7691055820      -41.1392750467       -4.8415558688  MEMB      281             0.0000000000
     32641       281  POPE      C312          -10.8031566315      -43.1046373433       -4.6442586091  MEMB      281             0.0000000000
     32642       281  POPE      H12X          -10.6048248168      -43.9330875156       -5.3574593707  MEMB      281             0.0000000000
     32643       281  POPE      H12Y          -11.7425599438      -43.2276506935       -4.0639912135  MEMB      281             0.0000000000
     32644       281  POPE      C313           -9.6911900086      -43.1510066758       -3.5747700978  MEMB      281             0.0000000000
     32645       281  POPE      H13X           -9.7466897338      -42.2524059856       -2.9238026840  MEMB      281             0.0000000000
     32646       281  POPE      H13Y           -8.6945103104      -43.2619129841       -4.0529433950  MEMB      281             0.0000000000
     32647       281  POPE      C314           -9.9098093363      -44.3723584623       -2.6409414260  MEMB      281             0.0000000000
     32648       281  POPE      H14X           -9.8935513698      -45.3534199938       -3.1620701596  MEMB      281             0.0000000000
     32649       281  POPE      H14Y          -10.9024590023      -44.2735768691       -2.1518497323  MEMB      281             0.0000000000
     32650       281  POPE      C315           -8.9227971442      -44.3902170266       -1.4355395843  MEMB      281             0.0000000000
     32651       281  POPE      H15X           -9.3323611196      -45.1288936928       -0.7137813942  MEMB      281             0.0000000000
     32652       281  POPE      H15Y           -8.8953781326      -43.3346581061       -1.0900481137  MEMB      281             0.0000000000
     32653       281  POPE      C316           -7.5416244318      -44.9522291392       -1.7038529172  MEMB      281             0.0000000000
     32654       281  POPE      H16X           -7.6535781793      -45.9325768647       -2.2144450743  MEMB      281             0.0000000000
     32655       281  POPE      H16Y           -7.0089970969      -45.0447956677       -0.7332543042  MEMB      281             0.0000000000
     32656       281  POPE      H16Z           -7.1149882576      -44.2926943638       -2.4895472875  MEMB      281             0.0000000000
     32657       282  POPC      N             -44.5705881592        3.6900763098      -19.1794401054  MEMB      282             0.0000000000
     32658       282  POPC      C12           -45.3023223736        2.7059982504      -18.3361670455  MEMB      282             0.0000000000
     32659       282  POPC      H12A          -45.9232938698        3.2473017584      -17.6377509627  MEMB      282             0.0000000000
     32660       282  POPC      H12B          -44.5999760624        2.0790504243      -17.8069732091  MEMB      282             0.0000000000
     32661       282  POPC      C13           -43.8783255382        4.6428708892      -18.2228257081  MEMB      282             0.0000000000
     32662       282  POPC      H13A          -43.3465195953        4.0938894693      -17.4598041394  MEMB      282             0.0000000000
     32663       282  POPC      H13B          -43.1865058604        5.3727701463      -18.6165674368  MEMB      282             0.0000000000
     32664       282  POPC      H13C          -44.6731824743        5.1598585130      -17.7057898068  MEMB      282             0.0000000000
     32665       282  POPC      C14           -43.5460963387        3.0543250343      -20.0645057503  MEMB      282             0.0000000000
     32666       282  POPC      H14A          -44.0682820416        2.4051396767      -20.7517322744  MEMB      282             0.0000000000
     32667       282  POPC      H14B          -43.0286299035        3.7659137060      -20.6908205859  MEMB      282             0.0000000000
     32668       282  POPC      H14C          -42.8809497407        2.4942233346      -19.4239858138  MEMB      282             0.0000000000
     32669       282  POPC      C15           -45.4467298590        4.5819295638      -20.0695776718  MEMB      282             0.0000000000
     32670       282  POPC      H15A          -46.2675223862        4.8082260286      -19.4051308524  MEMB      282             0.0000000000
     32671       282  POPC      H15B          -45.7847530821        4.1100580188      -20.9803342431  MEMB      282             0.0000000000
     32672       282  POPC      H15C          -44.9125021382        5.4865141553      -20.3200327426  MEMB      282             0.0000000000
     32673       282  POPC      C11           -46.2564532739        1.7905976178      -19.0415800482  MEMB      282             0.0000000000
     32674       282  POPC      H11A          -46.3638566252        0.9998283601      -18.2686185653  MEMB      282             0.0000000000
     32675       282  POPC      H11B          -45.7861305914        1.4682746476      -19.9951131496  MEMB      282             0.0000000000
     32676       282  POPC      P             -48.8279148749        1.9587160553      -18.8583427680  MEMB      282             0.0000000000
     32677       282  POPC      O13           -48.9507895679        0.5749378474      -19.3431576556  MEMB      282             0.0000000000
     32678       282  POPC      O14           -49.8894020881        2.9648962725      -19.2489847369  MEMB      282             0.0000000000
     32679       282  POPC      O12           -47.4765211626        2.4663105430      -19.3707253896  MEMB      282             0.0000000000
     32680       282  POPC      O11           -48.7072149037        2.0345272047      -17.2646931216  MEMB      282             0.0000000000
     32681       282  POPC      C1            -49.3789449982        1.1910266153      -16.3469292487  MEMB      282             0.0000000000
     32682       282  POPC      HA            -49.3832541316        0.1402809324      -16.7078114959  MEMB      282             0.0000000000
     32683       282  POPC      HB            -50.4418340431        1.5129905463      -16.3164793007  MEMB      282             0.0000000000
     32684       282  POPC      C2            -48.7623029832        1.1959527589      -14.9308263946  MEMB      282             0.0000000000
     32685       282  POPC      HS            -49.3956556372        0.5660075720      -14.2702545481  MEMB      282             0.0000000000
     32686       282  POPC      O21           -48.7594152926        2.5977914828      -14.4396518580  MEMB      282             0.0000000000
     32687       282  POPC      C21           -49.6829738187        2.9356696742      -13.5701340064  MEMB      282             0.0000000000
     32688       282  POPC      O22           -50.7273151992        2.3873609266      -13.2906167407  MEMB      282             0.0000000000
     32689       282  POPC      C22           -49.1273493832        4.1743270240      -12.8503654640  MEMB      282             0.0000000000
     32690       282  POPC      H2R           -49.3344949590        5.0911507329      -13.4426881161  MEMB      282             0.0000000000
     32691       282  POPC      H2S           -48.0266471740        4.2104779067      -12.7038429786  MEMB      282             0.0000000000
     32692       282  POPC      C3            -47.2619158626        0.6610806726      -15.1579985686  MEMB      282             0.0000000000
     32693       282  POPC      HX            -46.7045199332        1.4572955165      -15.6962111580  MEMB      282             0.0000000000
     32694       282  POPC      HY            -47.3235151475       -0.2106504931      -15.8440094584  MEMB      282             0.0000000000
     32695       282  POPC      O31           -46.6649131922        0.3618640996      -13.9307444010  MEMB      282             0.0000000000
     32696       282  POPC      C31           -46.1316777812       -0.8737893729      -13.6073791001  MEMB      282             0.0000000000
     32697       282  POPC      O32           -46.0741991106       -1.8706742013      -14.3007306825  MEMB      282             0.0000000000
     32698       282  POPC      C32           -45.7511274076       -0.7843402942      -12.1514087267  MEMB      282             0.0000000000
     32699       282  POPC      H2X           -46.6751939599       -0.9937791225      -11.5712731497  MEMB      282             0.0000000000
     32700       282  POPC      H2Y           -45.4704576513        0.2341213043      -11.8074883857  MEMB      282             0.0000000000
     32701       282  POPC      C23           -49.7590293796        4.2228418296      -11.4291458770  MEMB      282             0.0000000000
     32702       282  POPC      H3R           -49.4906758418        3.2963807718      -10.8778043532  MEMB      282             0.0000000000
     32703       282  POPC      H3S           -50.8559002962        4.2692141811      -11.5995717638  MEMB      282             0.0000000000
     32704       282  POPC      C24           -49.2559073558        5.4377745242      -10.5748859273  MEMB      282             0.0000000000
     32705       282  POPC      H4R           -49.9038349462        5.4240420412       -9.6724878630  MEMB      282             0.0000000000
     32706       282  POPC      H4S           -49.4218848745        6.4021265434      -11.1010013943  MEMB      282             0.0000000000
     32707       282  POPC      C25           -47.7863996255        5.4441228535      -10.0874549498  MEMB      282             0.0000000000
     32708       282  POPC      H5R           -47.4796411380        6.4542915847       -9.7413630599  MEMB      282             0.0000000000
     32709       282  POPC      H5S           -47.0920303689        5.3382779655      -10.9482506764  MEMB      282             0.0000000000
     32710       282  POPC      C26           -47.4894222634        4.5771836690       -8.8696090294  MEMB      282             0.0000000000
     32711       282  POPC      H6R           -48.2181530816        4.8155556785       -8.0655870599  MEMB      282             0.0000000000
     32712       282  POPC      H6S           -46.5219569774        4.8977484269       -8.4273758290  MEMB      282             0.0000000000
     32713       282  POPC      C27           -47.4149131473        3.1030593426       -9.2141606716  MEMB      282             0.0000000000
     32714       282  POPC      H7R           -46.8802555350        3.0051571419      -10.1831175100  MEMB      282             0.0000000000
     32715       282  POPC      H7S           -48.4187114882        2.6366357859       -9.3098639203  MEMB      282             0.0000000000
     32716       282  POPC      C28           -46.9236573054        2.1437072379       -8.0340122830  MEMB      282             0.0000000000
     32717       282  POPC      H8R           -47.6117089878        2.4241480770       -7.2080221859  MEMB      282             0.0000000000
     32718       282  POPC      H8S           -45.9574188019        2.5888303037       -7.7137477677  MEMB      282             0.0000000000
     32719       282  POPC      C29           -46.7477205120        0.6808083074       -8.3887081748  MEMB      282             0.0000000000
     32720       282  POPC      H91           -45.9653281534        0.3780868569       -9.1002015221  MEMB      282             0.0000000000
     32721       282  POPC      C210          -47.4395334277       -0.3301927946       -7.7387757219  MEMB      282             0.0000000000
     32722       282  POPC      H101          -47.2245911516       -1.3392600416       -8.1203285782  MEMB      282             0.0000000000
     32723       282  POPC      C211          -48.4265153457       -0.3010875738       -6.6172697562  MEMB      282             0.0000000000
     32724       282  POPC      H11R          -49.3959081476       -0.7341288142       -6.9444903476  MEMB      282             0.0000000000
     32725       282  POPC      H11S          -48.5898113502        0.7349680219       -6.2508761802  MEMB      282             0.0000000000
     32726       282  POPC      C212          -47.8846570297       -0.9929712474       -5.3618228601  MEMB      282             0.0000000000
     32727       282  POPC      H12R          -46.9518131581       -0.4818661685       -5.0410503056  MEMB      282             0.0000000000
     32728       282  POPC      H12S          -47.6719651037       -2.0541839486       -5.6126413429  MEMB      282             0.0000000000
     32729       282  POPC      C213          -48.9081569796       -1.0381885387       -4.2065110477  MEMB      282             0.0000000000
     32730       282  POPC      H13R          -49.8004778727       -1.6154899266       -4.5302510781  MEMB      282             0.0000000000
     32731       282  POPC      H13S          -49.2115035056        0.0268931392       -4.1176109968  MEMB      282             0.0000000000
     32732       282  POPC      C214          -48.2935249699       -1.5477154815       -2.9211214822  MEMB      282             0.0000000000
     32733       282  POPC      H14R          -47.7193788589       -2.4775332997       -3.1214129496  MEMB      282             0.0000000000
     32734       282  POPC      H14S          -49.1354017581       -1.8172455618       -2.2481303683  MEMB      282             0.0000000000
     32735       282  POPC      C215          -47.3868978655       -0.4932985034       -2.1508449463  MEMB      282             0.0000000000
     32736       282  POPC      H15R          -47.8056189854        0.5062566651       -2.3955564622  MEMB      282             0.0000000000
     32737       282  POPC      H15S          -46.3876740757       -0.4494524798       -2.6345302813  MEMB      282             0.0000000000
     32738       282  POPC      C216          -47.1704643695       -0.8582501355       -0.6839015030  MEMB      282             0.0000000000
     32739       282  POPC      H16R          -46.2828763055       -0.3693804361       -0.2283630065  MEMB      282             0.0000000000
     32740       282  POPC      H16S          -47.1044516228       -1.9584711189       -0.5443416775  MEMB      282             0.0000000000
     32741       282  POPC      C217          -48.3553297040       -0.4710314741        0.2776794956  MEMB      282             0.0000000000
     32742       282  POPC      H17R          -48.1257699660       -0.9133079600        1.2706622248  MEMB      282             0.0000000000
     32743       282  POPC      H17S          -49.2553448656       -0.9210179307       -0.1932830144  MEMB      282             0.0000000000
     32744       282  POPC      C218          -48.4697295990        1.0741445480        0.3372205851  MEMB      282             0.0000000000
     32745       282  POPC      H18R          -49.1155678754        1.3792256115        1.1881860413  MEMB      282             0.0000000000
     32746       282  POPC      H18S          -48.7614378485        1.5292924503       -0.6333799923  MEMB      282             0.0000000000
     32747       282  POPC      H18T          -47.4908072164        1.5533122373        0.5526977649  MEMB      282             0.0000000000
     32748       282  POPC      C33           -44.6459914469       -1.7877368940      -11.8033670932  MEMB      282             0.0000000000
     32749       282  POPC      H3X           -43.8355909255       -1.6067623201      -12.5414860752  MEMB      282             0.0000000000
     32750       282  POPC      H3Y           -44.9753243979       -2.8065797800      -12.0997107595  MEMB      282             0.0000000000
     32751       282  POPC      C34           -43.9246116753       -1.6533587086      -10.4616237072  MEMB      282             0.0000000000
     32752       282  POPC      H4X           -43.1141419807       -2.4106435880      -10.5247001986  MEMB      282             0.0000000000
     32753       282  POPC      H4Y           -44.6608453726       -2.0806615536       -9.7476950284  MEMB      282             0.0000000000
     32754       282  POPC      C35           -43.2749680621       -0.3904710108      -10.0122413633  MEMB      282             0.0000000000
     32755       282  POPC      H5X           -43.9391991375        0.4979565019      -10.0740074550  MEMB      282             0.0000000000
     32756       282  POPC      H5Y           -42.5171111622       -0.1958600030      -10.8009747042  MEMB      282             0.0000000000
     32757       282  POPC      C36           -42.5807126221       -0.5808186425       -8.6476436376  MEMB      282             0.0000000000
     32758       282  POPC      H6X           -41.6916419978       -1.2226932594       -8.8261687499  MEMB      282             0.0000000000
     32759       282  POPC      H6Y           -43.2152192695       -1.0864962518       -7.8886887405  MEMB      282             0.0000000000
     32760       282  POPC      C37           -42.2190555613        0.8949883985       -8.0798466212  MEMB      282             0.0000000000
     32761       282  POPC      H7X           -41.7950422770        1.5015875368       -8.9084431449  MEMB      282             0.0000000000
     32762       282  POPC      H7Y           -41.4364912905        0.7211207712       -7.3106369043  MEMB      282             0.0000000000
     32763       282  POPC      C38           -43.3911760773        1.4780541432       -7.3943823264  MEMB      282             0.0000000000
     32764       282  POPC      H8X           -44.1780494475        0.7473805829       -7.1093073447  MEMB      282             0.0000000000
     32765       282  POPC      H8Y           -43.9186856003        2.2333286061       -8.0153608958  MEMB      282             0.0000000000
     32766       282  POPC      C39           -43.1696505829        2.1174560537       -6.0082887402  MEMB      282             0.0000000000
     32767       282  POPC      H9X           -42.5798056688        3.0298661955       -6.2404770580  MEMB      282             0.0000000000
     32768       282  POPC      H9Y           -42.4619240402        1.4661451375       -5.4521968625  MEMB      282             0.0000000000
     32769       282  POPC      C310          -44.4241686784        2.4779734791       -5.2531766365  MEMB      282             0.0000000000
     32770       282  POPC      H10X          -45.0537154034        1.5836660304       -5.0577128553  MEMB      282             0.0000000000
     32771       282  POPC      H10Y          -45.0190479197        3.2148079432       -5.8341374808  MEMB      282             0.0000000000
     32772       282  POPC      C311          -44.2038188090        2.8949171786       -3.8312714269  MEMB      282             0.0000000000
     32773       282  POPC      H11X          -43.9868640065        3.9815597933       -3.9116413316  MEMB      282             0.0000000000
     32774       282  POPC      H11Y          -43.2922694942        2.3891975106       -3.4470227215  MEMB      282             0.0000000000
     32775       282  POPC      C312          -45.2755309889        2.5661138835       -2.7624146039  MEMB      282             0.0000000000
     32776       282  POPC      H12X          -44.9119853602        2.9700553344       -1.7934005551  MEMB      282             0.0000000000
     32777       282  POPC      H12Y          -45.3545442151        1.4622542248       -2.6645790357  MEMB      282             0.0000000000
     32778       282  POPC      C313          -46.7393115222        3.1171848069       -3.2392615101  MEMB      282             0.0000000000
     32779       282  POPC      H13X          -47.5451991977        2.8015165339       -2.5426844362  MEMB      282             0.0000000000
     32780       282  POPC      H13Y          -46.8922291042        2.5987345528       -4.2099035243  MEMB      282             0.0000000000
     32781       282  POPC      C314          -46.8300226535        4.6584941181       -3.4392419014  MEMB      282             0.0000000000
     32782       282  POPC      H14X          -47.9161475892        4.7950883021       -3.6289663143  MEMB      282             0.0000000000
     32783       282  POPC      H14Y          -46.2620078254        4.9892920982       -4.3349275869  MEMB      282             0.0000000000
     32784       282  POPC      C315          -46.5070879994        5.5202297188       -2.2732854421  MEMB      282             0.0000000000
     32785       282  POPC      H15X          -46.3449860482        6.5652491263       -2.6138424819  MEMB      282             0.0000000000
     32786       282  POPC      H15Y          -45.5788450420        5.1661844506       -1.7759563074  MEMB      282             0.0000000000
     32787       282  POPC      C316          -47.6178752331        5.5567056909       -1.1431910301  MEMB      282             0.0000000000
     32788       282  POPC      H16X          -48.5330700083        5.9237250453       -1.6550866043  MEMB      282             0.0000000000
     32789       282  POPC      H16Y          -47.3311683149        6.4085636053       -0.4901526536  MEMB      282             0.0000000000
     32790       282  POPC      H16Z          -47.8285675310        4.5876591776       -0.6423137342  MEMB      282             0.0000000000
     32791       283  POPE      N             -45.6499541297       14.7875381939      -19.0148708418  MEMB      283             0.0000000000
     32792       283  POPE      HN1           -44.9734894890       14.4728447653      -18.2903272082  MEMB      283             0.0000000000
     32793       283  POPE      HN2           -46.1247161652       15.6443754134      -18.6655415426  MEMB      283             0.0000000000
     32794       283  POPE      HN3           -46.3461367959       14.0566940706      -19.2654638429  MEMB      283             0.0000000000
     32795       283  POPE      C12           -44.9092250096       15.1852834850      -20.2792883969  MEMB      283             0.0000000000
     32796       283  POPE      H12A          -45.0958751352       16.2534605297      -20.5211156059  MEMB      283             0.0000000000
     32797       283  POPE      H12B          -45.5189464370       14.7375177817      -21.0929630385  MEMB      283             0.0000000000
     32798       283  POPE      C11           -43.4726947207       14.5980502729      -20.3813143778  MEMB      283             0.0000000000
     32799       283  POPE      H11A          -43.2694572087       14.5665389199      -21.4731122730  MEMB      283             0.0000000000
     32800       283  POPE      H11B          -43.3753634187       13.5609894025      -19.9948528692  MEMB      283             0.0000000000
     32801       283  POPE      P             -41.7620420702       15.3403499020      -18.4250311192  MEMB      283             0.0000000000
     32802       283  POPE      O13           -42.5788728693       15.8883643887      -17.3303677209  MEMB      283             0.0000000000
     32803       283  POPE      O14           -40.4165150205       15.9147272610      -18.5870394221  MEMB      283             0.0000000000
     32804       283  POPE      O11           -41.6694177561       13.7672605290      -18.2199779101  MEMB      283             0.0000000000
     32805       283  POPE      O12           -42.5940088447       15.5308529410      -19.7621102016  MEMB      283             0.0000000000
     32806       283  POPE      C1            -40.6651692274       12.9173135782      -18.6770931164  MEMB      283             0.0000000000
     32807       283  POPE      HA            -39.6787862563       13.4197068817      -18.7718070212  MEMB      283             0.0000000000
     32808       283  POPE      HB            -40.8206240945       12.5778749651      -19.7234851612  MEMB      283             0.0000000000
     32809       283  POPE      C2            -40.5914514085       11.6916192823      -17.6964478026  MEMB      283             0.0000000000
     32810       283  POPE      HS            -40.2475757570       10.7615846002      -18.1975527218  MEMB      283             0.0000000000
     32811       283  POPE      O21           -41.9397156611       11.4243021742      -17.0562893424  MEMB      283             0.0000000000
     32812       283  POPE      C21           -43.0011520242       11.0558022722      -17.7808328009  MEMB      283             0.0000000000
     32813       283  POPE      O22           -43.0352232106       11.0871566628      -19.0093433685  MEMB      283             0.0000000000
     32814       283  POPE      C22           -44.2341974097       10.8294778374      -16.8486693652  MEMB      283             0.0000000000
     32815       283  POPE      H2R           -44.3313545160        9.7610169299      -16.5600991622  MEMB      283             0.0000000000
     32816       283  POPE      H2S           -45.1591664806       11.0802733670      -17.4106790902  MEMB      283             0.0000000000
     32817       283  POPE      C3            -39.6070829334       11.9165851659      -16.4532848338  MEMB      283             0.0000000000
     32818       283  POPE      HX            -38.5485741657       11.8582330541      -16.7856635631  MEMB      283             0.0000000000
     32819       283  POPE      HY            -39.7655294727       11.0492435440      -15.7773155621  MEMB      283             0.0000000000
     32820       283  POPE      O31           -39.9379245051       13.2002616709      -15.9210479083  MEMB      283             0.0000000000
     32821       283  POPE      C31           -40.5988546585       13.2970100356      -14.7876663369  MEMB      283             0.0000000000
     32822       283  POPE      O32           -41.0933314588       12.3741488398      -14.1331779583  MEMB      283             0.0000000000
     32823       283  POPE      C32           -40.8766178859       14.7830951412      -14.5163824436  MEMB      283             0.0000000000
     32824       283  POPE      H2X           -41.2041167178       15.1688498581      -15.5054522030  MEMB      283             0.0000000000
     32825       283  POPE      H2Y           -39.8922582819       15.2343015135      -14.2678463621  MEMB      283             0.0000000000
     32826       283  POPE      C23           -44.2718588291       11.6482515130      -15.5657391391  MEMB      283             0.0000000000
     32827       283  POPE      H3R           -44.0443417765       12.7334891871      -15.6351380916  MEMB      283             0.0000000000
     32828       283  POPE      H3S           -43.4701198790       11.2423939975      -14.9124279215  MEMB      283             0.0000000000
     32829       283  POPE      C24           -45.5155145553       11.4701931161      -14.6820751328  MEMB      283             0.0000000000
     32830       283  POPE      H4R           -45.5941576398       10.4020541059      -14.3867522046  MEMB      283             0.0000000000
     32831       283  POPE      H4S           -46.4155300023       11.8261355350      -15.2276008828  MEMB      283             0.0000000000
     32832       283  POPE      C25           -45.3865234466       12.3482808868      -13.4099283890  MEMB      283             0.0000000000
     32833       283  POPE      H5R           -46.4035487962       12.7740372065      -13.2731358013  MEMB      283             0.0000000000
     32834       283  POPE      H5S           -44.8919639036       13.3142190405      -13.6480358261  MEMB      283             0.0000000000
     32835       283  POPE      C26           -44.6869808999       11.7007365499      -12.2566376190  MEMB      283             0.0000000000
     32836       283  POPE      H6R           -43.6095921770       11.4565575481      -12.3746692937  MEMB      283             0.0000000000
     32837       283  POPE      H6S           -45.1206723515       10.6832949439      -12.1515412926  MEMB      283             0.0000000000
     32838       283  POPE      C27           -45.0053933411       12.4373655997      -10.9358398039  MEMB      283             0.0000000000
     32839       283  POPE      H7R           -46.0585944769       12.3448742066      -10.5944695335  MEMB      283             0.0000000000
     32840       283  POPE      H7S           -44.9269142330       13.5380831957      -11.0646135053  MEMB      283             0.0000000000
     32841       283  POPE      C28           -43.9670592487       11.8882240049       -9.9030980409  MEMB      283             0.0000000000
     32842       283  POPE      H8R           -42.9793150022       11.9517916027      -10.4077182671  MEMB      283             0.0000000000
     32843       283  POPE      H8S           -44.3102911379       10.8392559169       -9.7759019005  MEMB      283             0.0000000000
     32844       283  POPE      C29           -44.1708923322       12.6202894305       -8.6357439268  MEMB      283             0.0000000000
     32845       283  POPE      H91           -45.1352948950       12.3844932027       -8.1621106105  MEMB      283             0.0000000000
     32846       283  POPE      C210          -43.4948415146       13.7648424371       -8.2044619674  MEMB      283             0.0000000000
     32847       283  POPE      H101          -43.7775989664       14.2443401010       -7.2557102723  MEMB      283             0.0000000000
     32848       283  POPE      C211          -42.3897935860       14.4109088317       -8.9443943825  MEMB      283             0.0000000000
     32849       283  POPE      H11R          -42.7637783607       14.9685342832       -9.8295558893  MEMB      283             0.0000000000
     32850       283  POPE      H11S          -41.8066694550       13.6670321724       -9.5282913349  MEMB      283             0.0000000000
     32851       283  POPE      C212          -41.4131234926       15.0436248632       -8.0283656859  MEMB      283             0.0000000000
     32852       283  POPE      H12R          -41.6966883897       16.0110228073       -7.5614042134  MEMB      283             0.0000000000
     32853       283  POPE      H12S          -40.5086550623       15.2535517565       -8.6384388785  MEMB      283             0.0000000000
     32854       283  POPE      C213          -40.7776366641       14.1826514638       -6.9500150360  MEMB      283             0.0000000000
     32855       283  POPE      H13R          -39.7365919603       14.5488703301       -6.8218326606  MEMB      283             0.0000000000
     32856       283  POPE      H13S          -40.6279880915       13.1074072826       -7.1861853340  MEMB      283             0.0000000000
     32857       283  POPE      C214          -41.4390370891       14.3445865207       -5.6553303434  MEMB      283             0.0000000000
     32858       283  POPE      H14R          -42.3698149242       13.7380888365       -5.6437462246  MEMB      283             0.0000000000
     32859       283  POPE      H14S          -41.8100106354       15.3864021507       -5.5489357380  MEMB      283             0.0000000000
     32860       283  POPE      C215          -40.5651845713       13.9812664613       -4.4290066141  MEMB      283             0.0000000000
     32861       283  POPE      H15R          -39.6808531308       14.6483392119       -4.3436082594  MEMB      283             0.0000000000
     32862       283  POPE      H15S          -40.2202331605       12.9252987504       -4.4451861714  MEMB      283             0.0000000000
     32863       283  POPE      C216          -41.2918012559       14.1602421900       -3.0569175863  MEMB      283             0.0000000000
     32864       283  POPE      H16R          -40.5062877946       14.0786194474       -2.2754907382  MEMB      283             0.0000000000
     32865       283  POPE      H16S          -42.0480709914       13.3543163218       -2.9435134551  MEMB      283             0.0000000000
     32866       283  POPE      C217          -42.0305437153       15.5405597486       -2.8131737202  MEMB      283             0.0000000000
     32867       283  POPE      H17R          -42.6782987571       15.7442187739       -3.6925242348  MEMB      283             0.0000000000
     32868       283  POPE      H17S          -41.2326363364       16.3121458978       -2.7650141525  MEMB      283             0.0000000000
     32869       283  POPE      C218          -42.8267209374       15.6576912388       -1.5327291519  MEMB      283             0.0000000000
     32870       283  POPE      H18R          -42.1564405493       15.4495470070       -0.6714976234  MEMB      283             0.0000000000
     32871       283  POPE      H18S          -43.6492321882       14.9114813723       -1.5016309442  MEMB      283             0.0000000000
     32872       283  POPE      H18T          -43.3410436267       16.6221599308       -1.3337494268  MEMB      283             0.0000000000
     32873       283  POPE      C33           -42.0075642181       15.0247602579      -13.5741772208  MEMB      283             0.0000000000
     32874       283  POPE      H3X           -41.7041129212       14.8522412522      -12.5194375036  MEMB      283             0.0000000000
     32875       283  POPE      H3Y           -42.9225496182       14.4344669673      -13.7948047961  MEMB      283             0.0000000000
     32876       283  POPE      C34           -42.4514148955       16.5359538364      -13.5762236946  MEMB      283             0.0000000000
     32877       283  POPE      H4X           -42.8986765947       16.8606597793      -14.5399892997  MEMB      283             0.0000000000
     32878       283  POPE      H4Y           -41.5753906404       17.2023509704      -13.4251702563  MEMB      283             0.0000000000
     32879       283  POPE      C35           -43.4715691463       16.8894209483      -12.4431276068  MEMB      283             0.0000000000
     32880       283  POPE      H5X           -43.1208808037       16.6260601175      -11.4223534316  MEMB      283             0.0000000000
     32881       283  POPE      H5Y           -44.4200212845       16.3166404316      -12.5248713245  MEMB      283             0.0000000000
     32882       283  POPE      C36           -43.7677952994       18.4167952333      -12.4103224136  MEMB      283             0.0000000000
     32883       283  POPE      H6X           -44.0786041980       18.7326625500      -13.4291192900  MEMB      283             0.0000000000
     32884       283  POPE      H6Y           -42.7746274757       18.8623830830      -12.1880836735  MEMB      283             0.0000000000
     32885       283  POPE      C37           -44.8159081143       18.9258424180      -11.4321143394  MEMB      283             0.0000000000
     32886       283  POPE      H7X           -45.8347614789       18.5070751230      -11.5766574307  MEMB      283             0.0000000000
     32887       283  POPE      H7Y           -45.0243442740       20.0162479427      -11.3886209756  MEMB      283             0.0000000000
     32888       283  POPE      C38           -44.5283066889       18.5837245623       -9.9678816867  MEMB      283             0.0000000000
     32889       283  POPE      H8X           -43.9132439609       19.4145204693       -9.5606998238  MEMB      283             0.0000000000
     32890       283  POPE      H8Y           -44.1213861564       17.5653114754       -9.7901973522  MEMB      283             0.0000000000
     32891       283  POPE      C39           -45.8849104808       18.6360475727       -9.1999443635  MEMB      283             0.0000000000
     32892       283  POPE      H9X           -46.6998283496       18.0410196531       -9.6648871476  MEMB      283             0.0000000000
     32893       283  POPE      H9Y           -46.1321979122       19.7186408493       -9.1658664086  MEMB      283             0.0000000000
     32894       283  POPE      C310          -45.6588697238       18.2150135664       -7.6649369345  MEMB      283             0.0000000000
     32895       283  POPE      H10X          -46.4586717627       18.7493980060       -7.1089952039  MEMB      283             0.0000000000
     32896       283  POPE      H10Y          -44.6181544819       18.4068654800       -7.3266679752  MEMB      283             0.0000000000
     32897       283  POPE      C311          -45.9915847966       16.7654739365       -7.4410165935  MEMB      283             0.0000000000
     32898       283  POPE      H11X          -45.1484174341       16.1774295372       -7.8624342572  MEMB      283             0.0000000000
     32899       283  POPE      H11Y          -46.9277761913       16.4990753146       -7.9766457060  MEMB      283             0.0000000000
     32900       283  POPE      C312          -46.1745913515       16.3415297435       -5.9166722246  MEMB      283             0.0000000000
     32901       283  POPE      H12X          -46.7318433945       17.1884971131       -5.4623195285  MEMB      283             0.0000000000
     32902       283  POPE      H12Y          -45.1185721160       16.2521230290       -5.5832794162  MEMB      283             0.0000000000
     32903       283  POPE      C313          -46.8166660995       14.9550955360       -5.6020368782  MEMB      283             0.0000000000
     32904       283  POPE      H13X          -46.3773819311       14.1978339406       -6.2860725637  MEMB      283             0.0000000000
     32905       283  POPE      H13Y          -47.8967830100       14.9559619904       -5.8621665804  MEMB      283             0.0000000000
     32906       283  POPE      C314          -46.7609487003       14.3954430654       -4.1038848717  MEMB      283             0.0000000000
     32907       283  POPE      H14X          -45.7158954994       14.2810245783       -3.7445890284  MEMB      283             0.0000000000
     32908       283  POPE      H14Y          -47.4318935512       13.5100166253       -4.0906807641  MEMB      283             0.0000000000
     32909       283  POPE      C315          -47.3918231766       15.4234316266       -3.1605761277  MEMB      283             0.0000000000
     32910       283  POPE      H15X          -46.8584480707       16.3448707021       -3.4780388810  MEMB      283             0.0000000000
     32911       283  POPE      H15Y          -46.9654973837       14.9993803533       -2.2263656921  MEMB      283             0.0000000000
     32912       283  POPE      C316          -48.8447112113       15.5699106062       -3.1785581528  MEMB      283             0.0000000000
     32913       283  POPE      H16X          -49.0504844334       16.0517580846       -4.1582525532  MEMB      283             0.0000000000
     32914       283  POPE      H16Y          -49.3193931626       16.2272855590       -2.4190482583  MEMB      283             0.0000000000
     32915       283  POPE      H16Z          -49.4341831691       14.6359818792       -3.0576392721  MEMB      283             0.0000000000
     32916       284  POPC      N             -29.6223034144       27.7445009308      -17.2855293422  MEMB      284             0.0000000000
     32917       284  POPC      C12           -30.0683457399       27.0942485676      -18.7033433817  MEMB      284             0.0000000000
     32918       284  POPC      H12A          -30.4054182171       26.0979007736      -18.4582448718  MEMB      284             0.0000000000
     32919       284  POPC      H12B          -29.2482213366       27.0599895489      -19.4052138920  MEMB      284             0.0000000000
     32920       284  POPC      C13           -30.7790057856       28.2195078410      -16.4820975794  MEMB      284             0.0000000000
     32921       284  POPC      H13A          -31.4202087499       27.3729145796      -16.2857850757  MEMB      284             0.0000000000
     32922       284  POPC      H13B          -30.3012372375       28.7069634881      -15.6451244096  MEMB      284             0.0000000000
     32923       284  POPC      H13C          -31.3541033380       28.8574032813      -17.1368894554  MEMB      284             0.0000000000
     32924       284  POPC      C14           -28.8930132561       26.7043035752      -16.5148315604  MEMB      284             0.0000000000
     32925       284  POPC      H14A          -29.6106267346       25.9449336628      -16.2413572421  MEMB      284             0.0000000000
     32926       284  POPC      H14B          -28.1746039140       26.3361873528      -17.2323122901  MEMB      284             0.0000000000
     32927       284  POPC      H14C          -28.5670128927       27.1058949768      -15.5667554491  MEMB      284             0.0000000000
     32928       284  POPC      C15           -28.6559248655       28.9245666068      -17.4703395562  MEMB      284             0.0000000000
     32929       284  POPC      H15A          -27.8361973977       28.5048111053      -18.0344778942  MEMB      284             0.0000000000
     32930       284  POPC      H15B          -28.3834696093       29.3084889711      -16.4983459056  MEMB      284             0.0000000000
     32931       284  POPC      H15C          -29.1376667857       29.7029821144      -18.0433963135  MEMB      284             0.0000000000
     32932       284  POPC      C11           -31.2698486022       27.7823590639      -19.3833192012  MEMB      284             0.0000000000
     32933       284  POPC      H11A          -32.2022172472       27.6940447632      -18.7856485149  MEMB      284             0.0000000000
     32934       284  POPC      H11B          -31.4919798204       27.1657973756      -20.2804426055  MEMB      284             0.0000000000
     32935       284  POPC      P             -31.9351201835       30.0105726450      -20.6970137957  MEMB      284             0.0000000000
     32936       284  POPC      O13           -31.7422714002       29.6307808424      -22.1407761735  MEMB      284             0.0000000000
     32937       284  POPC      O14           -31.7232409070       31.4556799525      -20.3341280271  MEMB      284             0.0000000000
     32938       284  POPC      O12           -30.9857307605       29.1599165749      -19.7237827334  MEMB      284             0.0000000000
     32939       284  POPC      O11           -33.3944959502       29.4918504074      -20.2648386651  MEMB      284             0.0000000000
     32940       284  POPC      C1            -34.5364639254       30.2937316367      -20.2423131920  MEMB      284             0.0000000000
     32941       284  POPC      HA            -35.4728098014       29.8527857656      -20.6462242814  MEMB      284             0.0000000000
     32942       284  POPC      HB            -34.4685369817       31.2476412571      -20.8077890151  MEMB      284             0.0000000000
     32943       284  POPC      C2            -34.9318197081       30.5813901539      -18.7815465716  MEMB      284             0.0000000000
     32944       284  POPC      HS            -35.8290895212       31.2311384468      -18.6975537660  MEMB      284             0.0000000000
     32945       284  POPC      O21           -33.8348250332       31.1725077191      -18.0457066867  MEMB      284             0.0000000000
     32946       284  POPC      C21           -33.8420195760       32.5054572273      -17.9110240230  MEMB      284             0.0000000000
     32947       284  POPC      O22           -34.5570966934       33.2977338110      -18.5184059077  MEMB      284             0.0000000000
     32948       284  POPC      C22           -32.8177198643       32.9506335296      -16.8439795224  MEMB      284             0.0000000000
     32949       284  POPC      H2R           -33.4318142433       33.1069215915      -15.9314101111  MEMB      284             0.0000000000
     32950       284  POPC      H2S           -32.4448918778       33.9487526451      -17.1587468099  MEMB      284             0.0000000000
     32951       284  POPC      C3            -35.3613150479       29.3292797816      -18.0654849531  MEMB      284             0.0000000000
     32952       284  POPC      HX            -34.5679479695       28.5516224326      -18.0772737303  MEMB      284             0.0000000000
     32953       284  POPC      HY            -36.2321635882       28.8369996298      -18.5488107637  MEMB      284             0.0000000000
     32954       284  POPC      O31           -35.7592434643       29.6586844824      -16.7351637816  MEMB      284             0.0000000000
     32955       284  POPC      C31           -35.1527729224       29.1934369635      -15.6550486697  MEMB      284             0.0000000000
     32956       284  POPC      O32           -34.3962382939       28.2392832454      -15.6443555325  MEMB      284             0.0000000000
     32957       284  POPC      C32           -35.4797004830       29.9707301935      -14.4345004765  MEMB      284             0.0000000000
     32958       284  POPC      H2X           -35.0216769868       29.3814697056      -13.6115133390  MEMB      284             0.0000000000
     32959       284  POPC      H2Y           -36.5770503398       30.1313290911      -14.3685263461  MEMB      284             0.0000000000
     32960       284  POPC      C23           -31.8156955366       31.8237833747      -16.4244312613  MEMB      284             0.0000000000
     32961       284  POPC      H3R           -31.3275619162       31.3020837341      -17.2752401055  MEMB      284             0.0000000000
     32962       284  POPC      H3S           -32.3447902807       31.0289464853      -15.8564398488  MEMB      284             0.0000000000
     32963       284  POPC      C24           -30.6761630100       32.4148550006      -15.5557375525  MEMB      284             0.0000000000
     32964       284  POPC      H4R           -31.2234528379       32.9132590887      -14.7272518779  MEMB      284             0.0000000000
     32965       284  POPC      H4S           -30.0963368248       33.1553088368      -16.1472196075  MEMB      284             0.0000000000
     32966       284  POPC      C25           -29.6563614764       31.4379297767      -14.9273779133  MEMB      284             0.0000000000
     32967       284  POPC      H5R           -28.8532904532       32.0781740031      -14.5037207503  MEMB      284             0.0000000000
     32968       284  POPC      H5S           -29.2781118245       30.8571268376      -15.7956612640  MEMB      284             0.0000000000
     32969       284  POPC      C26           -30.2650067754       30.4626449475      -13.8924572531  MEMB      284             0.0000000000
     32970       284  POPC      H6R           -31.0724201402       29.8115972900      -14.2906301800  MEMB      284             0.0000000000
     32971       284  POPC      H6S           -30.6993173421       31.1090843608      -13.1001118355  MEMB      284             0.0000000000
     32972       284  POPC      C27           -29.2804041378       29.6432183113      -12.9618051599  MEMB      284             0.0000000000
     32973       284  POPC      H7R           -28.5816377569       30.3387809030      -12.4497122183  MEMB      284             0.0000000000
     32974       284  POPC      H7S           -28.5934560584       29.0584507417      -13.6102420736  MEMB      284             0.0000000000
     32975       284  POPC      C28           -29.9137434650       28.7625219837      -11.9196443985  MEMB      284             0.0000000000
     32976       284  POPC      H8R           -30.7083616044       28.1829887876      -12.4364078031  MEMB      284             0.0000000000
     32977       284  POPC      H8S           -30.5599475730       29.3837719392      -11.2632992218  MEMB      284             0.0000000000
     32978       284  POPC      C29           -28.8348337481       27.8988577400      -11.2743096656  MEMB      284             0.0000000000
     32979       284  POPC      H91           -28.3918421251       27.1591009144      -11.9573311305  MEMB      284             0.0000000000
     32980       284  POPC      C210          -28.5805862553       27.6803904597       -9.9862515507  MEMB      284             0.0000000000
     32981       284  POPC      H101          -27.7668615678       26.9990747220       -9.6970100224  MEMB      284             0.0000000000
     32982       284  POPC      C211          -29.3825292531       28.3047419449       -8.7847380840  MEMB      284             0.0000000000
     32983       284  POPC      H11R          -30.2230978614       28.8909749052       -9.2138023173  MEMB      284             0.0000000000
     32984       284  POPC      H11S          -28.7195738406       28.9516610331       -8.1712992059  MEMB      284             0.0000000000
     32985       284  POPC      C212          -30.0009238701       27.2691818188       -7.8014166398  MEMB      284             0.0000000000
     32986       284  POPC      H12R          -30.5148359709       26.4781422207       -8.3883331093  MEMB      284             0.0000000000
     32987       284  POPC      H12S          -30.7230957956       27.8381946927       -7.1777070381  MEMB      284             0.0000000000
     32988       284  POPC      C213          -28.9420909199       26.6933186770       -6.7487115042  MEMB      284             0.0000000000
     32989       284  POPC      H13R          -28.1163703662       26.1324276635       -7.2364692911  MEMB      284             0.0000000000
     32990       284  POPC      H13S          -29.5114552138       25.9336556191       -6.1715999393  MEMB      284             0.0000000000
     32991       284  POPC      C214          -28.6107624631       27.7950663397       -5.7532165805  MEMB      284             0.0000000000
     32992       284  POPC      H14R          -29.4706983377       28.1795426359       -5.1641424227  MEMB      284             0.0000000000
     32993       284  POPC      H14S          -28.1382923780       28.6270276773       -6.3179583005  MEMB      284             0.0000000000
     32994       284  POPC      C215          -27.6087061850       27.2754271758       -4.7813301114  MEMB      284             0.0000000000
     32995       284  POPC      H15R          -26.7238448253       27.1166896083       -5.4341270731  MEMB      284             0.0000000000
     32996       284  POPC      H15S          -27.9179911573       26.4080050626       -4.1598459842  MEMB      284             0.0000000000
     32997       284  POPC      C216          -27.0976002459       28.3330954853       -3.8103062491  MEMB      284             0.0000000000
     32998       284  POPC      H16R          -26.7561531204       29.2512877441       -4.3343838923  MEMB      284             0.0000000000
     32999       284  POPC      H16S          -26.1988431446       27.8732473055       -3.3465218228  MEMB      284             0.0000000000
     33000       284  POPC      C217          -28.0224091834       28.5819179275       -2.5807986774  MEMB      284             0.0000000000
     33001       284  POPC      H17R          -27.4002988827       28.8543863863       -1.7015607878  MEMB      284             0.0000000000
     33002       284  POPC      H17S          -28.4560507528       27.6020432094       -2.2873355031  MEMB      284             0.0000000000
     33003       284  POPC      C218          -29.0429644163       29.7348700758       -2.6472905935  MEMB      284             0.0000000000
     33004       284  POPC      H18R          -29.9270900131       29.4879567826       -3.2731321382  MEMB      284             0.0000000000
     33005       284  POPC      H18S          -28.6528448205       30.7169218476       -2.9903682879  MEMB      284             0.0000000000
     33006       284  POPC      H18T          -29.4630980222       29.8938211784       -1.6311509727  MEMB      284             0.0000000000
     33007       284  POPC      C33           -34.8297136970       31.3496812851      -14.4072639172  MEMB      284             0.0000000000
     33008       284  POPC      H3X           -35.1022246829       31.8295678169      -15.3715086070  MEMB      284             0.0000000000
     33009       284  POPC      H3Y           -33.7195733392       31.3596555155      -14.3647215314  MEMB      284             0.0000000000
     33010       284  POPC      C34           -35.3667375747       32.3895754346      -13.4307445950  MEMB      284             0.0000000000
     33011       284  POPC      H4X           -36.4017013803       32.7053687902      -13.6826292802  MEMB      284             0.0000000000
     33012       284  POPC      H4Y           -34.7290010188       33.2984488119      -13.4702751734  MEMB      284             0.0000000000
     33013       284  POPC      C35           -35.2598182526       31.8873668190      -11.9570356818  MEMB      284             0.0000000000
     33014       284  POPC      H5X           -34.2864822926       31.3577886582      -11.8765046123  MEMB      284             0.0000000000
     33015       284  POPC      H5Y           -36.0001206820       31.1395913353      -11.6005179517  MEMB      284             0.0000000000
     33016       284  POPC      C36           -35.2748517351       33.0160914544      -10.9100088278  MEMB      284             0.0000000000
     33017       284  POPC      H6X           -36.1801957479       33.6346532895      -11.0890472748  MEMB      284             0.0000000000
     33018       284  POPC      H6Y           -34.5183258877       33.7922432372      -11.1540952651  MEMB      284             0.0000000000
     33019       284  POPC      C37           -35.2688240088       32.5547284160       -9.5141497225  MEMB      284             0.0000000000
     33020       284  POPC      H7X           -36.1653047514       31.9362415455       -9.2947931853  MEMB      284             0.0000000000
     33021       284  POPC      H7Y           -35.1943426390       33.3422160426       -8.7339988348  MEMB      284             0.0000000000
     33022       284  POPC      C38           -34.1325608160       31.5568541697       -9.2327325630  MEMB      284             0.0000000000
     33023       284  POPC      H8X           -33.1691852535       32.0678482405       -9.4451326006  MEMB      284             0.0000000000
     33024       284  POPC      H8Y           -34.2377552336       30.6103563643       -9.8049185383  MEMB      284             0.0000000000
     33025       284  POPC      C39           -34.1566119678       31.0608703573       -7.8236838545  MEMB      284             0.0000000000
     33026       284  POPC      H9X           -35.1846814608       30.9713931079       -7.4121156807  MEMB      284             0.0000000000
     33027       284  POPC      H9Y           -33.6611684946       31.8227541579       -7.1846302621  MEMB      284             0.0000000000
     33028       284  POPC      C310          -33.5735008272       29.6262837906       -7.5387707699  MEMB      284             0.0000000000
     33029       284  POPC      H10X          -32.6157534584       29.5137044274       -8.0904652647  MEMB      284             0.0000000000
     33030       284  POPC      H10Y          -34.1544391394       28.7483009635       -7.8937054042  MEMB      284             0.0000000000
     33031       284  POPC      C311          -33.2722701398       29.3703074912       -6.1004941838  MEMB      284             0.0000000000
     33032       284  POPC      H11X          -32.4666654284       30.0801237370       -5.8150417319  MEMB      284             0.0000000000
     33033       284  POPC      H11Y          -32.9207702180       28.3251856483       -5.9645199541  MEMB      284             0.0000000000
     33034       284  POPC      C312          -34.4905913070       29.5373164664       -5.1153166771  MEMB      284             0.0000000000
     33035       284  POPC      H12X          -35.2352172168       28.7736441167       -5.4262150350  MEMB      284             0.0000000000
     33036       284  POPC      H12Y          -34.9426169217       30.5464398973       -5.2233158512  MEMB      284             0.0000000000
     33037       284  POPC      C313          -34.1468552190       29.1890745425       -3.6314211531  MEMB      284             0.0000000000
     33038       284  POPC      H13X          -33.9528330023       28.1011636511       -3.5168512773  MEMB      284             0.0000000000
     33039       284  POPC      H13Y          -35.0469355368       29.2693915915       -2.9851035858  MEMB      284             0.0000000000
     33040       284  POPC      C314          -33.0365430049       29.9186953015       -2.9558252531  MEMB      284             0.0000000000
     33041       284  POPC      H14X          -32.1560831533       29.7680084451       -3.6164358358  MEMB      284             0.0000000000
     33042       284  POPC      H14Y          -32.7521492913       29.5673899904       -1.9409236843  MEMB      284             0.0000000000
     33043       284  POPC      C315          -33.1379954853       31.4929414193       -2.8090660281  MEMB      284             0.0000000000
     33044       284  POPC      H15X          -33.6137251134       31.9305184873       -3.7126854413  MEMB      284             0.0000000000
     33045       284  POPC      H15Y          -32.0704366458       31.7987909218       -2.7759703277  MEMB      284             0.0000000000
     33046       284  POPC      C316          -33.8991540826       32.0251067938       -1.5443340317  MEMB      284             0.0000000000
     33047       284  POPC      H16X          -34.2690700742       33.0518983465       -1.7521385203  MEMB      284             0.0000000000
     33048       284  POPC      H16Y          -33.1825981747       32.1883197703       -0.7111296404  MEMB      284             0.0000000000
     33049       284  POPC      H16Z          -34.7544221113       31.3580541945       -1.3037558254  MEMB      284             0.0000000000
     33050       285  POPE      N               4.8328279191      -41.9907691692      -19.1176401021  MEMB      285             0.0000000000
     33051       285  POPE      HN1             5.8525448299      -41.8430636365      -18.9763590515  MEMB      285             0.0000000000
     33052       285  POPE      HN2             4.6572678593      -42.4826485384      -20.0169918639  MEMB      285             0.0000000000
     33053       285  POPE      HN3             4.3037151831      -41.0954605124      -19.1097734037  MEMB      285             0.0000000000
     33054       285  POPE      C12             4.2124663427      -42.8798601553      -18.0690295810  MEMB      285             0.0000000000
     33055       285  POPE      H12A            3.1274946559      -43.0378611312      -18.2484548473  MEMB      285             0.0000000000
     33056       285  POPE      H12B            4.3338482820      -42.2887555712      -17.1361937105  MEMB      285             0.0000000000
     33057       285  POPE      C11             4.9492884198      -44.2218891963      -17.9062652227  MEMB      285             0.0000000000
     33058       285  POPE      H11A            4.6646613875      -44.7950717043      -16.9980965593  MEMB      285             0.0000000000
     33059       285  POPE      H11B            6.0163138749      -43.9538664393      -17.7515350836  MEMB      285             0.0000000000
     33060       285  POPE      P               3.7781931453      -46.0329248846      -19.4464846106  MEMB      285             0.0000000000
     33061       285  POPE      O13             4.1984426744      -47.4028538049      -19.2232671894  MEMB      285             0.0000000000
     33062       285  POPE      O14             3.4027588819      -45.6245210221      -20.8264339285  MEMB      285             0.0000000000
     33063       285  POPE      O11             2.6749641242      -45.6298280886      -18.4140254445  MEMB      285             0.0000000000
     33064       285  POPE      O12             4.9994940926      -45.1415304954      -18.9968539198  MEMB      285             0.0000000000
     33065       285  POPE      C1              1.6050065418      -46.4868837855      -18.0692725944  MEMB      285             0.0000000000
     33066       285  POPE      HA              1.5894040388      -47.3626425610      -18.7527375582  MEMB      285             0.0000000000
     33067       285  POPE      HB              0.6227200613      -46.0114310369      -18.2775489468  MEMB      285             0.0000000000
     33068       285  POPE      C2              1.6750609664      -46.8448189470      -16.6266958906  MEMB      285             0.0000000000
     33069       285  POPE      HS              1.6755403546      -45.8539397648      -16.1242228362  MEMB      285             0.0000000000
     33070       285  POPE      O21             2.8366645165      -47.6374362395      -16.2944213196  MEMB      285             0.0000000000
     33071       285  POPE      C21             3.5675693111      -47.2316307147      -15.2957960149  MEMB      285             0.0000000000
     33072       285  POPE      O22             3.2782784636      -46.3074099468      -14.5535522139  MEMB      285             0.0000000000
     33073       285  POPE      C22             4.8928799742      -47.9823281558      -15.3426388431  MEMB      285             0.0000000000
     33074       285  POPE      H2R             5.7774093581      -47.3424180086      -15.1366198574  MEMB      285             0.0000000000
     33075       285  POPE      H2S             5.0369110457      -48.5110879001      -16.3090699486  MEMB      285             0.0000000000
     33076       285  POPE      C3              0.3849590335      -47.5625303494      -16.1543061778  MEMB      285             0.0000000000
     33077       285  POPE      HX              0.2161893244      -48.4216657167      -16.8382096472  MEMB      285             0.0000000000
     33078       285  POPE      HY             -0.4567546385      -46.8373829064      -16.1549012825  MEMB      285             0.0000000000
     33079       285  POPE      O31             0.4663388812      -47.9761967805      -14.8205828977  MEMB      285             0.0000000000
     33080       285  POPE      C31             0.2187649155      -47.0618816725      -13.9335447499  MEMB      285             0.0000000000
     33081       285  POPE      O32            -0.2637177778      -45.9570293043      -14.0455344208  MEMB      285             0.0000000000
     33082       285  POPE      C32             0.8495652748      -47.4573650521      -12.5865223258  MEMB      285             0.0000000000
     33083       285  POPE      H2X             0.2374942396      -47.0009282388      -11.7794563933  MEMB      285             0.0000000000
     33084       285  POPE      H2Y             1.9177727009      -47.1527350617      -12.5652070054  MEMB      285             0.0000000000
     33085       285  POPE      C23             4.6899017736      -49.1353556324      -14.3011319859  MEMB      285             0.0000000000
     33086       285  POPE      H3R             4.4538255406      -50.0084107251      -14.9463942884  MEMB      285             0.0000000000
     33087       285  POPE      H3S             3.9187318465      -48.9634689070      -13.5200600176  MEMB      285             0.0000000000
     33088       285  POPE      C24             5.8840035851      -49.5417591520      -13.4162858809  MEMB      285             0.0000000000
     33089       285  POPE      H4R             6.7178291218      -49.9602369308      -14.0195537350  MEMB      285             0.0000000000
     33090       285  POPE      H4S             5.4971234078      -50.2999858265      -12.7023272055  MEMB      285             0.0000000000
     33091       285  POPE      C25             6.4133264223      -48.4587073196      -12.5233573073  MEMB      285             0.0000000000
     33092       285  POPE      H5R             6.8451935972      -47.6552671202      -13.1576254371  MEMB      285             0.0000000000
     33093       285  POPE      H5S             7.3038618414      -48.9420546439      -12.0676788841  MEMB      285             0.0000000000
     33094       285  POPE      C26             5.3848610897      -47.8880390272      -11.5675974093  MEMB      285             0.0000000000
     33095       285  POPE      H6R             4.6668832406      -48.7033712376      -11.3350838162  MEMB      285             0.0000000000
     33096       285  POPE      H6S             4.8423294900      -46.9939799934      -11.9426159388  MEMB      285             0.0000000000
     33097       285  POPE      C27             6.0265042992      -47.4534916988      -10.2009320080  MEMB      285             0.0000000000
     33098       285  POPE      H7R             6.7129923599      -46.5980977150      -10.3780109406  MEMB      285             0.0000000000
     33099       285  POPE      H7S             6.6022961515      -48.3435932276       -9.8685120104  MEMB      285             0.0000000000
     33100       285  POPE      C28             4.9773384940      -46.9469098330       -9.0831923812  MEMB      285             0.0000000000
     33101       285  POPE      H8R             4.1967671361      -46.4022450254       -9.6562275057  MEMB      285             0.0000000000
     33102       285  POPE      H8S             5.5684678977      -46.1988170481       -8.5128905646  MEMB      285             0.0000000000
     33103       285  POPE      C29             4.5215752550      -48.1593029276       -8.3696066316  MEMB      285             0.0000000000
     33104       285  POPE      H91             4.5226098726      -49.0345986292       -9.0358319359  MEMB      285             0.0000000000
     33105       285  POPE      C210            4.2714128838      -48.2536018845       -7.0981035622  MEMB      285             0.0000000000
     33106       285  POPE      H101            3.9903407514      -49.2295562629       -6.6755984245  MEMB      285             0.0000000000
     33107       285  POPE      C211            4.3002337186      -47.2857151334       -5.9261194836  MEMB      285             0.0000000000
     33108       285  POPE      H11R            3.2945096086      -46.9434304638       -5.6010332647  MEMB      285             0.0000000000
     33109       285  POPE      H11S            4.9205063310      -46.4496743890       -6.3142149005  MEMB      285             0.0000000000
     33110       285  POPE      C212            5.0015393800      -47.6909734422       -4.6409740315  MEMB      285             0.0000000000
     33111       285  POPE      H12R            6.0132111649      -48.0380677858       -4.9415849706  MEMB      285             0.0000000000
     33112       285  POPE      H12S            4.3891521833      -48.4517664266       -4.1113548181  MEMB      285             0.0000000000
     33113       285  POPE      C213            5.3585183192      -46.6164524455       -3.6398436716  MEMB      285             0.0000000000
     33114       285  POPE      H13R            4.3964582736      -46.2016427577       -3.2701218157  MEMB      285             0.0000000000
     33115       285  POPE      H13S            5.8565958956      -45.7829862912       -4.1798204950  MEMB      285             0.0000000000
     33116       285  POPE      C214            6.0882210916      -47.1089098196       -2.3311976517  MEMB      285             0.0000000000
     33117       285  POPE      H14R            6.1360836645      -46.1946322125       -1.7018123670  MEMB      285             0.0000000000
     33118       285  POPE      H14S            7.1299619192      -47.2359078038       -2.6958473663  MEMB      285             0.0000000000
     33119       285  POPE      C215            5.4145681089      -48.1837785635       -1.5385333869  MEMB      285             0.0000000000
     33120       285  POPE      H15R            5.3796628468      -49.1346029651       -2.1121488782  MEMB      285             0.0000000000
     33121       285  POPE      H15S            4.3593006769      -47.8849627686       -1.3612169328  MEMB      285             0.0000000000
     33122       285  POPE      C216            6.2255471064      -48.3464513244       -0.2399376106  MEMB      285             0.0000000000
     33123       285  POPE      H16R            5.9544954057      -47.5071353680        0.4356368167  MEMB      285             0.0000000000
     33124       285  POPE      H16S            7.3072663288      -48.3626228808       -0.4928067227  MEMB      285             0.0000000000
     33125       285  POPE      C217            5.8526395306      -49.6412673684        0.4330070827  MEMB      285             0.0000000000
     33126       285  POPE      H17R            4.7480537848      -49.6928182583        0.3255180304  MEMB      285             0.0000000000
     33127       285  POPE      H17S            5.9267932482      -49.4668782936        1.5277259453  MEMB      285             0.0000000000
     33128       285  POPE      C218            6.5352280661      -50.8845725869       -0.0217636559  MEMB      285             0.0000000000
     33129       285  POPE      H18R            7.5582096852      -50.9171206400        0.4104061560  MEMB      285             0.0000000000
     33130       285  POPE      H18S            6.6035723482      -51.0656865911       -1.1157684203  MEMB      285             0.0000000000
     33131       285  POPE      H18T            6.0303439568      -51.7960238114        0.3638130450  MEMB      285             0.0000000000
     33132       285  POPE      C33             0.6962647171      -48.9772181632      -12.3584316136  MEMB      285             0.0000000000
     33133       285  POPE      H3X             1.2979686914      -49.4942115856      -13.1362432223  MEMB      285             0.0000000000
     33134       285  POPE      H3Y            -0.3226346719      -49.3848136551      -12.1851367278  MEMB      285             0.0000000000
     33135       285  POPE      C34             1.4017864531      -49.4046044652      -10.9986052177  MEMB      285             0.0000000000
     33136       285  POPE      H4X             0.7556409460      -49.1895055588      -10.1207959987  MEMB      285             0.0000000000
     33137       285  POPE      H4Y             2.3613578423      -48.8645487286      -10.8506736490  MEMB      285             0.0000000000
     33138       285  POPE      C35             1.8819256612      -50.8692298903      -11.1524942334  MEMB      285             0.0000000000
     33139       285  POPE      H5X             2.5824291782      -50.8193791440      -12.0133845441  MEMB      285             0.0000000000
     33140       285  POPE      H5Y             0.9125395369      -51.3967054767      -11.2804825462  MEMB      285             0.0000000000
     33141       285  POPE      C36             2.6473578493      -51.5949472787       -9.9674277791  MEMB      285             0.0000000000
     33142       285  POPE      H6X             3.6288392543      -51.0842878411       -9.8662231248  MEMB      285             0.0000000000
     33143       285  POPE      H6Y             2.8815023254      -52.6324431472      -10.2885189388  MEMB      285             0.0000000000
     33144       285  POPE      C37             1.8998568740      -51.6379314596       -8.6468460943  MEMB      285             0.0000000000
     33145       285  POPE      H7X             1.1092099164      -52.3948754828       -8.8371977392  MEMB      285             0.0000000000
     33146       285  POPE      H7Y             1.4833902270      -50.6406554272       -8.3893247439  MEMB      285             0.0000000000
     33147       285  POPE      C38             2.7926846499      -52.0949006130       -7.3970262880  MEMB      285             0.0000000000
     33148       285  POPE      H8X             3.7407111731      -51.5213994329       -7.4786539002  MEMB      285             0.0000000000
     33149       285  POPE      H8Y             3.0690765404      -53.1702607932       -7.3579292782  MEMB      285             0.0000000000
     33150       285  POPE      C39             2.1400094156      -51.6496970197       -6.0625756580  MEMB      285             0.0000000000
     33151       285  POPE      H9X             1.2578270321      -52.2744858856       -5.8062284714  MEMB      285             0.0000000000
     33152       285  POPE      H9Y             1.8857455730      -50.5748798923       -6.1827385694  MEMB      285             0.0000000000
     33153       285  POPE      C310            3.0238465714      -51.7137107434       -4.8477751922  MEMB      285             0.0000000000
     33154       285  POPE      H10X            3.8005271912      -50.9231621568       -4.9260111049  MEMB      285             0.0000000000
     33155       285  POPE      H10Y            3.4743839771      -52.7283167456       -4.8040491067  MEMB      285             0.0000000000
     33156       285  POPE      C311            2.2515062422      -51.4792646368       -3.5414716553  MEMB      285             0.0000000000
     33157       285  POPE      H11X            2.9901156928      -51.6675086519       -2.7331762892  MEMB      285             0.0000000000
     33158       285  POPE      H11Y            1.4162010354      -52.2060664411       -3.4501145248  MEMB      285             0.0000000000
     33159       285  POPE      C312            1.5599554132      -50.1564394088       -3.3212971337  MEMB      285             0.0000000000
     33160       285  POPE      H12X            0.8315870022      -49.9427706388       -4.1325596458  MEMB      285             0.0000000000
     33161       285  POPE      H12Y            2.2854418491      -49.3155343898       -3.2918220418  MEMB      285             0.0000000000
     33162       285  POPE      C313            0.8325819488      -50.0851657987       -1.9548171623  MEMB      285             0.0000000000
     33163       285  POPE      H13X            1.5564508448      -50.1506984494       -1.1145555138  MEMB      285             0.0000000000
     33164       285  POPE      H13Y            0.1998066608      -50.9962393078       -1.8926808770  MEMB      285             0.0000000000
     33165       285  POPE      C314           -0.0175287137      -48.8423813953       -1.6767242805  MEMB      285             0.0000000000
     33166       285  POPE      H14X           -0.8811950258      -48.9132512700       -2.3719788849  MEMB      285             0.0000000000
     33167       285  POPE      H14Y            0.5333770419      -47.9195349642       -1.9581076744  MEMB      285             0.0000000000
     33168       285  POPE      C315           -0.6048747827      -48.8128365386       -0.3259304640  MEMB      285             0.0000000000
     33169       285  POPE      H15X           -1.1918213483      -47.8963161575       -0.1027607666  MEMB      285             0.0000000000
     33170       285  POPE      H15Y            0.1731243800      -48.7010278112        0.4592684195  MEMB      285             0.0000000000
     33171       285  POPE      C316           -1.5327671387      -50.0544091683       -0.0358915559  MEMB      285             0.0000000000
     33172       285  POPE      H16X           -2.2377018717      -49.7921147987        0.7817828281  MEMB      285             0.0000000000
     33173       285  POPE      H16Y           -0.8498094389      -50.8556592856        0.3189172698  MEMB      285             0.0000000000
     33174       285  POPE      H16Z           -2.0869185410      -50.3629322234       -0.9480590475  MEMB      285             0.0000000000
     33175       286  POPC      N              19.2959224851       47.5380061477      -19.2120275615  MEMB      286             0.0000000000
     33176       286  POPC      C12            17.9847126429       47.8439370604      -18.4613698278  MEMB      286             0.0000000000
     33177       286  POPC      H12A           18.0282892805       48.8303472101      -18.0237668734  MEMB      286             0.0000000000
     33178       286  POPC      H12B           17.9569776708       47.1818813917      -17.6085432423  MEMB      286             0.0000000000
     33179       286  POPC      C13            19.3064621503       46.0575489757      -19.3938012614  MEMB      286             0.0000000000
     33180       286  POPC      H13A           18.5264576491       45.6952844788      -20.0470679565  MEMB      286             0.0000000000
     33181       286  POPC      H13B           20.2426367392       45.6983332674      -19.7949761558  MEMB      286             0.0000000000
     33182       286  POPC      H13C           19.1464733881       45.4966776746      -18.4848310236  MEMB      286             0.0000000000
     33183       286  POPC      C14            19.4132277156       48.2133604483      -20.5142014857  MEMB      286             0.0000000000
     33184       286  POPC      H14A           20.3723673216       47.8945174627      -20.8947143361  MEMB      286             0.0000000000
     33185       286  POPC      H14B           18.6551500447       47.8512338712      -21.1928639558  MEMB      286             0.0000000000
     33186       286  POPC      H14C           19.4223562083       49.2770246664      -20.3272927938  MEMB      286             0.0000000000
     33187       286  POPC      C15            20.5385734093       47.8893265746      -18.4472149468  MEMB      286             0.0000000000
     33188       286  POPC      H15A           20.3970717944       48.8638327085      -18.0036893326  MEMB      286             0.0000000000
     33189       286  POPC      H15B           21.4818031247       47.9319184190      -18.9715272534  MEMB      286             0.0000000000
     33190       286  POPC      H15C           20.7069171465       47.1789777254      -17.6513098174  MEMB      286             0.0000000000
     33191       286  POPC      C11            16.6224206824       47.6958336212      -19.1823396333  MEMB      286             0.0000000000
     33192       286  POPC      H11A           16.7379205140       48.3442338642      -20.0770786157  MEMB      286             0.0000000000
     33193       286  POPC      H11B           15.7809678793       47.9800184808      -18.5148688587  MEMB      286             0.0000000000
     33194       286  POPC      P              15.5308055846       45.3794068289      -18.7155770973  MEMB      286             0.0000000000
     33195       286  POPC      O13            15.4819326068       44.1073697343      -19.4934256633  MEMB      286             0.0000000000
     33196       286  POPC      O14            14.1933868026       45.9089045215      -18.2567285798  MEMB      286             0.0000000000
     33197       286  POPC      O12            16.3188872682       46.4303504575      -19.6955557359  MEMB      286             0.0000000000
     33198       286  POPC      O11            16.7168685519       45.2122784323      -17.6277582027  MEMB      286             0.0000000000
     33199       286  POPC      C1             16.4414296782       44.8592311898      -16.2895339893  MEMB      286             0.0000000000
     33200       286  POPC      HA             16.6565667875       43.7738001581      -16.1901527399  MEMB      286             0.0000000000
     33201       286  POPC      HB             15.3595716653       44.9373553643      -16.0491163390  MEMB      286             0.0000000000
     33202       286  POPC      C2             17.2176911047       45.6933237693      -15.1958472141  MEMB      286             0.0000000000
     33203       286  POPC      HS             16.8066903576       45.4817646167      -14.1855788090  MEMB      286             0.0000000000
     33204       286  POPC      O21            17.1439406272       47.1018006772      -15.5684696520  MEMB      286             0.0000000000
     33205       286  POPC      C21            15.8946055312       47.7054695099      -15.3290546753  MEMB      286             0.0000000000
     33206       286  POPC      O22            14.9651132541       47.1131084281      -14.8087618798  MEMB      286             0.0000000000
     33207       286  POPC      C22            15.7790616856       49.2059970016      -15.7650587424  MEMB      286             0.0000000000
     33208       286  POPC      H2R            14.9341889058       49.3046786308      -16.4797424757  MEMB      286             0.0000000000
     33209       286  POPC      H2S            16.7591079861       49.5615641551      -16.1489885496  MEMB      286             0.0000000000
     33210       286  POPC      C3             18.6759782558       45.2208135605      -15.2106096618  MEMB      286             0.0000000000
     33211       286  POPC      HX             19.2632151412       45.4039218897      -16.1357827905  MEMB      286             0.0000000000
     33212       286  POPC      HY             18.7196887791       44.1279283907      -15.0156427426  MEMB      286             0.0000000000
     33213       286  POPC      O31            19.3025887518       45.8843429343      -14.0665939348  MEMB      286             0.0000000000
     33214       286  POPC      C31            20.6084043290       45.4934340876      -13.9164667920  MEMB      286             0.0000000000
     33215       286  POPC      O32            21.1279403115       44.5481929514      -14.4418118248  MEMB      286             0.0000000000
     33216       286  POPC      C32            21.2882728876       46.3918628491      -12.9101246718  MEMB      286             0.0000000000
     33217       286  POPC      H2X            20.6140232267       47.2296358714      -12.6311183399  MEMB      286             0.0000000000
     33218       286  POPC      H2Y            22.2359745286       46.8980098736      -13.1929627854  MEMB      286             0.0000000000
     33219       286  POPC      C23            15.2462163328       50.0503549999      -14.6196628266  MEMB      286             0.0000000000
     33220       286  POPC      H3R            14.2013707157       49.7085957993      -14.4589785657  MEMB      286             0.0000000000
     33221       286  POPC      H3S            15.1817450734       51.1195526337      -14.9145883815  MEMB      286             0.0000000000
     33222       286  POPC      C24            15.8863853843       49.8773292592      -13.1962186452  MEMB      286             0.0000000000
     33223       286  POPC      H4R            15.7534581478       48.8720438804      -12.7422884098  MEMB      286             0.0000000000
     33224       286  POPC      H4S            15.4274617947       50.6257447376      -12.5153485942  MEMB      286             0.0000000000
     33225       286  POPC      C25            17.4491977523       50.0630105997      -13.0635625640  MEMB      286             0.0000000000
     33226       286  POPC      H5R            17.8091058592       51.0118600440      -13.5157478555  MEMB      286             0.0000000000
     33227       286  POPC      H5S            18.0196407451       49.3259581293      -13.6682687142  MEMB      286             0.0000000000
     33228       286  POPC      C26            17.9528859138       50.0156284778      -11.6446847589  MEMB      286             0.0000000000
     33229       286  POPC      H6R            17.7036647775       49.0105500018      -11.2421589561  MEMB      286             0.0000000000
     33230       286  POPC      H6S            17.3837504246       50.7557439219      -11.0424931929  MEMB      286             0.0000000000
     33231       286  POPC      C27            19.4247959518       50.2961370083      -11.6313363057  MEMB      286             0.0000000000
     33232       286  POPC      H7R            19.5527835937       51.3428192439      -11.9811878404  MEMB      286             0.0000000000
     33233       286  POPC      H7S            20.0046302256       49.6890436983      -12.3590387066  MEMB      286             0.0000000000
     33234       286  POPC      C28            20.1796359632       50.2759118486      -10.2276570973  MEMB      286             0.0000000000
     33235       286  POPC      H8R            19.7656419561       51.1775529678       -9.7276839761  MEMB      286             0.0000000000
     33236       286  POPC      H8S            21.2697462341       50.3578639123      -10.4258109342  MEMB      286             0.0000000000
     33237       286  POPC      C29            19.9307211259       48.9036652543       -9.5077479798  MEMB      286             0.0000000000
     33238       286  POPC      H91            20.5592202591       48.0622176673       -9.8347872736  MEMB      286             0.0000000000
     33239       286  POPC      C210           19.0615198181       48.7249892702       -8.4884277550  MEMB      286             0.0000000000
     33240       286  POPC      H101           19.1024266885       47.7879861985       -7.9136655682  MEMB      286             0.0000000000
     33241       286  POPC      C211           18.1791276846       49.7876911131       -7.8672442926  MEMB      286             0.0000000000
     33242       286  POPC      H11R           17.3972132676       50.1478058170       -8.5695605152  MEMB      286             0.0000000000
     33243       286  POPC      H11S           18.8265736576       50.6745195869       -7.6979226590  MEMB      286             0.0000000000
     33244       286  POPC      C212           17.5580345042       49.3233229398       -6.5224414059  MEMB      286             0.0000000000
     33245       286  POPC      H12R           17.2122150776       48.2755706969       -6.6526149558  MEMB      286             0.0000000000
     33246       286  POPC      H12S           16.5701733554       49.7936984771       -6.3295733742  MEMB      286             0.0000000000
     33247       286  POPC      C213           18.4655814209       49.4479002413       -5.2390436860  MEMB      286             0.0000000000
     33248       286  POPC      H13R           18.7768361166       50.5144074133       -5.2411150057  MEMB      286             0.0000000000
     33249       286  POPC      H13S           19.4035520181       48.8614262440       -5.3419049051  MEMB      286             0.0000000000
     33250       286  POPC      C214           17.6882736105       49.0794518695       -3.9680650059  MEMB      286             0.0000000000
     33251       286  POPC      H14R           17.3675201373       48.0167677003       -4.0143300062  MEMB      286             0.0000000000
     33252       286  POPC      H14S           16.8663630512       49.8171446216       -3.8472616042  MEMB      286             0.0000000000
     33253       286  POPC      C215           18.4208225615       49.2935304567       -2.5816328179  MEMB      286             0.0000000000
     33254       286  POPC      H15R           17.6678120074       48.9323728578       -1.8489239868  MEMB      286             0.0000000000
     33255       286  POPC      H15S           18.5262540732       50.3949044798       -2.4807324291  MEMB      286             0.0000000000
     33256       286  POPC      C216           19.7085531496       48.4439031630       -2.5803564551  MEMB      286             0.0000000000
     33257       286  POPC      H16R           20.4329055198       48.7479141090       -3.3659858241  MEMB      286             0.0000000000
     33258       286  POPC      H16S           19.3127185991       47.4326217828       -2.8147620832  MEMB      286             0.0000000000
     33259       286  POPC      C217           20.4560829162       48.4358373441       -1.2493855724  MEMB      286             0.0000000000
     33260       286  POPC      H17R           19.7911708097       48.1553887055       -0.4046598636  MEMB      286             0.0000000000
     33261       286  POPC      H17S           20.8844938182       49.3976795324       -0.8949220016  MEMB      286             0.0000000000
     33262       286  POPC      C218           21.5739462195       47.3505859361       -1.2918198981  MEMB      286             0.0000000000
     33263       286  POPC      H18R           22.2041792668       47.4616539838       -0.3836388775  MEMB      286             0.0000000000
     33264       286  POPC      H18S           22.0951836487       47.4887585443       -2.2631789253  MEMB      286             0.0000000000
     33265       286  POPC      H18T           21.2162714454       46.2987767452       -1.2824889199  MEMB      286             0.0000000000
     33266       286  POPC      C33            21.3322588885       45.6421448985      -11.5958314180  MEMB      286             0.0000000000
     33267       286  POPC      H3X            21.7407184781       46.3654967486      -10.8581019631  MEMB      286             0.0000000000
     33268       286  POPC      H3Y            22.0120898720       44.7730459638      -11.7255159628  MEMB      286             0.0000000000
     33269       286  POPC      C34            19.9542898433       45.0064169199      -11.1152045241  MEMB      286             0.0000000000
     33270       286  POPC      H4X            19.4403054930       44.4136815849      -11.9018469557  MEMB      286             0.0000000000
     33271       286  POPC      H4Y            19.3483766103       45.8599129075      -10.7427335192  MEMB      286             0.0000000000
     33272       286  POPC      C35            20.2010156953       44.2043773336       -9.7872451140  MEMB      286             0.0000000000
     33273       286  POPC      H5X            21.1598509845       43.6440825883       -9.7552169682  MEMB      286             0.0000000000
     33274       286  POPC      H5Y            19.3641304618       43.4852002506       -9.6579069177  MEMB      286             0.0000000000
     33275       286  POPC      C36            20.1260794238       44.9563753505       -8.4323052934  MEMB      286             0.0000000000
     33276       286  POPC      H6X            19.1594318021       45.5008207979       -8.3732059536  MEMB      286             0.0000000000
     33277       286  POPC      H6Y            20.9887961310       45.6564005541       -8.4299759345  MEMB      286             0.0000000000
     33278       286  POPC      C37            20.3119452835       44.0364811705       -7.1742039176  MEMB      286             0.0000000000
     33279       286  POPC      H7X            21.3169286394       44.2992462356       -6.7801434333  MEMB      286             0.0000000000
     33280       286  POPC      H7Y            20.3245715264       43.0193941642       -7.6210775159  MEMB      286             0.0000000000
     33281       286  POPC      C38            19.2692551795       44.2924485886       -6.0095231572  MEMB      286             0.0000000000
     33282       286  POPC      H8X            19.2015937009       45.3358725804       -5.6340107018  MEMB      286             0.0000000000
     33283       286  POPC      H8Y            19.6119056871       43.6558507040       -5.1659270472  MEMB      286             0.0000000000
     33284       286  POPC      C39            17.8565127142       43.7280174034       -6.3217322769  MEMB      286             0.0000000000
     33285       286  POPC      H9X            18.0262363706       42.8971092388       -7.0394408298  MEMB      286             0.0000000000
     33286       286  POPC      H9Y            17.2138992072       44.4286669531       -6.8965874152  MEMB      286             0.0000000000
     33287       286  POPC      C310           17.1182809556       43.2810530732       -5.0730271691  MEMB      286             0.0000000000
     33288       286  POPC      H10X           17.3800135985       42.3131206250       -4.5945675965  MEMB      286             0.0000000000
     33289       286  POPC      H10Y           16.0775514961       43.1684847912       -5.4452255647  MEMB      286             0.0000000000
     33290       286  POPC      C311           17.1322940064       44.4418667870       -3.9854875925  MEMB      286             0.0000000000
     33291       286  POPC      H11X           16.9534967434       45.4049091575       -4.5097984460  MEMB      286             0.0000000000
     33292       286  POPC      H11Y           18.1492330506       44.4666137888       -3.5387855251  MEMB      286             0.0000000000
     33293       286  POPC      C312           16.2007735288       44.2244220195       -2.8503195442  MEMB      286             0.0000000000
     33294       286  POPC      H12X           16.5744762663       44.8099979158       -1.9832742838  MEMB      286             0.0000000000
     33295       286  POPC      H12Y           16.2810570999       43.1602568074       -2.5414047130  MEMB      286             0.0000000000
     33296       286  POPC      C313           14.7408819369       44.6675405651       -3.1919186510  MEMB      286             0.0000000000
     33297       286  POPC      H13X           13.9998272936       44.3260467211       -2.4379022484  MEMB      286             0.0000000000
     33298       286  POPC      H13Y           14.5006112061       44.3192387306       -4.2191854131  MEMB      286             0.0000000000
     33299       286  POPC      C314           14.5564380613       46.2160879855       -3.1731252552  MEMB      286             0.0000000000
     33300       286  POPC      H14X           13.4786340932       46.4146904962       -3.3553772975  MEMB      286             0.0000000000
     33301       286  POPC      H14Y           15.1452688495       46.6520140761       -4.0083304373  MEMB      286             0.0000000000
     33302       286  POPC      C315           14.9673303586       46.9254872828       -1.8349558335  MEMB      286             0.0000000000
     33303       286  POPC      H15X           16.0483999872       46.7504351946       -1.6479648182  MEMB      286             0.0000000000
     33304       286  POPC      H15Y           14.5572383120       46.3997205580       -0.9462974125  MEMB      286             0.0000000000
     33305       286  POPC      C316           14.5778292443       48.3876526357       -1.7533130432  MEMB      286             0.0000000000
     33306       286  POPC      H16X           14.7683839540       48.8928222661       -2.7242987352  MEMB      286             0.0000000000
     33307       286  POPC      H16Y           15.0429088595       48.9454584699       -0.9125539778  MEMB      286             0.0000000000
     33308       286  POPC      H16Z           13.5044066765       48.5052215398       -1.4920426362  MEMB      286             0.0000000000
     33309       287  POPE      N             -11.1277286610      -38.5034566712      -20.0267492181  MEMB      287             0.0000000000
     33310       287  POPE      HN1           -11.9921698294      -38.7129981505      -20.5656682491  MEMB      287             0.0000000000
     33311       287  POPE      HN2           -11.2409106281      -37.9183321972      -19.1744467864  MEMB      287             0.0000000000
     33312       287  POPE      HN3           -10.5513502419      -37.9234162552      -20.6693541869  MEMB      287             0.0000000000
     33313       287  POPE      C12           -10.3590563310      -39.8000978790      -19.7038344061  MEMB      287             0.0000000000
     33314       287  POPE      H12A           -9.3283997969      -39.6730747839      -19.3089507531  MEMB      287             0.0000000000
     33315       287  POPE      H12B          -10.1480206416      -40.3139257129      -20.6660016810  MEMB      287             0.0000000000
     33316       287  POPE      C11           -11.2383887785      -40.7149424156      -18.8785121637  MEMB      287             0.0000000000
     33317       287  POPE      H11A          -11.3611848040      -40.2369000783      -17.8831641086  MEMB      287             0.0000000000
     33318       287  POPE      H11B          -10.8503313505      -41.7552501745      -18.8398837605  MEMB      287             0.0000000000
     33319       287  POPE      P             -13.7009869435      -41.5259072047      -18.6741782932  MEMB      287             0.0000000000
     33320       287  POPE      O13           -13.3362965912      -42.7649703628      -17.9732364632  MEMB      287             0.0000000000
     33321       287  POPE      O14           -14.8190097200      -41.6010124960      -19.6226043715  MEMB      287             0.0000000000
     33322       287  POPE      O11           -14.0710718697      -40.3561794409      -17.5885409537  MEMB      287             0.0000000000
     33323       287  POPE      O12           -12.4834987353      -40.9045858372      -19.5323441306  MEMB      287             0.0000000000
     33324       287  POPE      C1            -14.6048538829      -39.1324626557      -18.0524582484  MEMB      287             0.0000000000
     33325       287  POPE      HA            -15.3475095513      -39.2726387712      -18.8667889032  MEMB      287             0.0000000000
     33326       287  POPE      HB            -13.7544839957      -38.5017177331      -18.3891374054  MEMB      287             0.0000000000
     33327       287  POPE      C2            -15.4743524919      -38.4598007494      -16.9350468549  MEMB      287             0.0000000000
     33328       287  POPE      HS            -15.7755256627      -37.4678733163      -17.3346658623  MEMB      287             0.0000000000
     33329       287  POPE      O21           -14.6838095782      -38.3022109423      -15.7652747589  MEMB      287             0.0000000000
     33330       287  POPE      C21           -13.4869657123      -37.6951425507      -15.8989914995  MEMB      287             0.0000000000
     33331       287  POPE      O22           -13.2867681274      -36.8249961610      -16.6979134810  MEMB      287             0.0000000000
     33332       287  POPE      C22           -12.3909791891      -38.2150878077      -14.8981872837  MEMB      287             0.0000000000
     33333       287  POPE      H2R           -11.8852975332      -37.2953879923      -14.5338260660  MEMB      287             0.0000000000
     33334       287  POPE      H2S           -11.6706431474      -38.9180638766      -15.3685716934  MEMB      287             0.0000000000
     33335       287  POPE      C3            -16.8133520718      -39.1940421073      -16.4694451022  MEMB      287             0.0000000000
     33336       287  POPE      HX            -17.2827549493      -39.3863901776      -17.4578704173  MEMB      287             0.0000000000
     33337       287  POPE      HY            -17.3797968423      -38.5051118002      -15.8069981614  MEMB      287             0.0000000000
     33338       287  POPE      O31           -16.5406402963      -40.3869832365      -15.6934429377  MEMB      287             0.0000000000
     33339       287  POPE      C31           -16.8430838072      -41.5379211651      -16.2120743892  MEMB      287             0.0000000000
     33340       287  POPE      O32           -17.3890337302      -41.7706070623      -17.2817269253  MEMB      287             0.0000000000
     33341       287  POPE      C32           -16.2790164561      -42.6170567487      -15.2934298395  MEMB      287             0.0000000000
     33342       287  POPE      H2X           -15.1883560789      -42.8241315384      -15.3370295338  MEMB      287             0.0000000000
     33343       287  POPE      H2Y           -16.7975397373      -43.5782377962      -15.4973550735  MEMB      287             0.0000000000
     33344       287  POPE      C23           -13.0090826657      -38.9088054367      -13.7459799984  MEMB      287             0.0000000000
     33345       287  POPE      H3R           -13.6909442782      -39.7261788862      -14.0642352828  MEMB      287             0.0000000000
     33346       287  POPE      H3S           -13.6511042890      -38.2381520711      -13.1357723032  MEMB      287             0.0000000000
     33347       287  POPE      C24           -11.9134538822      -39.4512960718      -12.8002859604  MEMB      287             0.0000000000
     33348       287  POPE      H4R           -11.7825748541      -38.9895808676      -11.7982827448  MEMB      287             0.0000000000
     33349       287  POPE      H4S           -10.8938491646      -39.3931351433      -13.2377151123  MEMB      287             0.0000000000
     33350       287  POPE      C25           -12.2078946584      -40.9525851306      -12.6074868176  MEMB      287             0.0000000000
     33351       287  POPE      H5R           -11.7728282144      -41.4726742834      -13.4875693785  MEMB      287             0.0000000000
     33352       287  POPE      H5S           -13.2866280803      -41.2182365008      -12.6166841189  MEMB      287             0.0000000000
     33353       287  POPE      C26           -11.6201863421      -41.4536960266      -11.2599046102  MEMB      287             0.0000000000
     33354       287  POPE      H6R           -10.5429538296      -41.2006910038      -11.1605080600  MEMB      287             0.0000000000
     33355       287  POPE      H6S           -11.6006277170      -42.5641088972      -11.2295415925  MEMB      287             0.0000000000
     33356       287  POPE      C27           -12.3554715835      -41.0092642591      -10.0318091257  MEMB      287             0.0000000000
     33357       287  POPE      H7R           -13.4483618686      -41.1076847174      -10.2056632731  MEMB      287             0.0000000000
     33358       287  POPE      H7S           -12.0718392450      -39.9667984107       -9.7726980241  MEMB      287             0.0000000000
     33359       287  POPE      C28           -12.2441904757      -41.8417082917       -8.7399259446  MEMB      287             0.0000000000
     33360       287  POPE      H8R           -12.7083880237      -41.1747695092       -7.9822755139  MEMB      287             0.0000000000
     33361       287  POPE      H8S           -11.1614255279      -41.8063783215       -8.4935670442  MEMB      287             0.0000000000
     33362       287  POPE      C29           -12.8253327975      -43.2835763117       -8.7789457463  MEMB      287             0.0000000000
     33363       287  POPE      H91           -13.9007310030      -43.3568968714       -8.5595307629  MEMB      287             0.0000000000
     33364       287  POPE      C210          -12.2210820944      -44.4886902621       -8.9242400449  MEMB      287             0.0000000000
     33365       287  POPE      H101          -12.8051331561      -45.4084252580       -8.7726750625  MEMB      287             0.0000000000
     33366       287  POPE      C211          -10.7176459349      -44.6558876888       -9.0519402838  MEMB      287             0.0000000000
     33367       287  POPE      H11R          -10.2340154218      -43.8052653644       -9.5781190778  MEMB      287             0.0000000000
     33368       287  POPE      H11S          -10.5858249677      -45.6224053364       -9.5837181215  MEMB      287             0.0000000000
     33369       287  POPE      C212           -9.9997894320      -44.8293771476       -7.7017596861  MEMB      287             0.0000000000
     33370       287  POPE      H12R          -10.0473911982      -43.8608064112       -7.1596104030  MEMB      287             0.0000000000
     33371       287  POPE      H12S           -8.9337192007      -45.0126940219       -7.9551575741  MEMB      287             0.0000000000
     33372       287  POPE      C213          -10.4233527583      -45.8709147472       -6.6409892601  MEMB      287             0.0000000000
     33373       287  POPE      H13R           -9.6162344752      -46.6205979024       -6.4965709367  MEMB      287             0.0000000000
     33374       287  POPE      H13S          -11.2971207834      -46.4456909813       -7.0157998775  MEMB      287             0.0000000000
     33375       287  POPE      C214          -10.5892210860      -45.2848127400       -5.2575146543  MEMB      287             0.0000000000
     33376       287  POPE      H14R           -9.6064152434      -44.7754667878       -5.1627513604  MEMB      287             0.0000000000
     33377       287  POPE      H14S          -10.6983750614      -46.2121162778       -4.6554230656  MEMB      287             0.0000000000
     33378       287  POPE      C215          -11.8315109839      -44.4806853614       -4.9650726134  MEMB      287             0.0000000000
     33379       287  POPE      H15R          -12.7991841124      -44.9313919750       -5.2729578565  MEMB      287             0.0000000000
     33380       287  POPE      H15S          -11.6905337675      -43.4811988081       -5.4292643972  MEMB      287             0.0000000000
     33381       287  POPE      C216          -11.9048527277      -44.0335710452       -3.4767640090  MEMB      287             0.0000000000
     33382       287  POPE      H16R          -11.0025390609      -43.5968762546       -2.9977566050  MEMB      287             0.0000000000
     33383       287  POPE      H16S          -12.1716120714      -44.9069533155       -2.8440219267  MEMB      287             0.0000000000
     33384       287  POPE      C217          -12.9590193414      -42.9485142296       -3.2805376008  MEMB      287             0.0000000000
     33385       287  POPE      H17R          -13.9192381567      -43.4718957643       -3.4764279308  MEMB      287             0.0000000000
     33386       287  POPE      H17S          -12.8212394376      -42.0941818272       -3.9772824968  MEMB      287             0.0000000000
     33387       287  POPE      C218          -13.1223423891      -42.5579643688       -1.8131642667  MEMB      287             0.0000000000
     33388       287  POPE      H18R          -13.6558941806      -43.3876958460       -1.3020962548  MEMB      287             0.0000000000
     33389       287  POPE      H18S          -13.6943081019      -41.6058873890       -1.7862300491  MEMB      287             0.0000000000
     33390       287  POPE      H18T          -12.1773705151      -42.4466964492       -1.2396061014  MEMB      287             0.0000000000
     33391       287  POPE      C33           -16.4741045289      -42.2457119932      -13.8279157576  MEMB      287             0.0000000000
     33392       287  POPE      H3X           -17.5121193841      -41.8753947567      -13.6875190824  MEMB      287             0.0000000000
     33393       287  POPE      H3Y           -15.7416421668      -41.4487033850      -13.5777212579  MEMB      287             0.0000000000
     33394       287  POPE      C34           -16.0952138340      -43.4677071391      -12.9330999123  MEMB      287             0.0000000000
     33395       287  POPE      H4X           -15.0642440475      -43.7435552140      -13.2418552533  MEMB      287             0.0000000000
     33396       287  POPE      H4Y           -16.8308010108      -44.2277984430      -13.2729439561  MEMB      287             0.0000000000
     33397       287  POPE      C35           -16.2419218879      -43.2834483524      -11.4618585623  MEMB      287             0.0000000000
     33398       287  POPE      H5X           -15.5366119870      -42.5047361327      -11.1006574343  MEMB      287             0.0000000000
     33399       287  POPE      H5Y           -15.9944723909      -44.2266877852      -10.9295155330  MEMB      287             0.0000000000
     33400       287  POPE      C36           -17.6460407908      -42.9164476313      -11.0043583048  MEMB      287             0.0000000000
     33401       287  POPE      H6X           -18.4129530390      -43.6053956134      -11.4185046575  MEMB      287             0.0000000000
     33402       287  POPE      H6Y           -17.7916915590      -41.8516341626      -11.2859231743  MEMB      287             0.0000000000
     33403       287  POPE      C37           -17.8663815026      -43.1099099832       -9.5468004049  MEMB      287             0.0000000000
     33404       287  POPE      H7X           -17.9094485094      -44.2168658025       -9.4624526188  MEMB      287             0.0000000000
     33405       287  POPE      H7Y           -18.8903278003      -42.7700705856       -9.2815384927  MEMB      287             0.0000000000
     33406       287  POPE      C38           -16.7979320020      -42.6111715907       -8.5624924904  MEMB      287             0.0000000000
     33407       287  POPE      H8X           -15.8506929357      -43.1046190217       -8.8683830339  MEMB      287             0.0000000000
     33408       287  POPE      H8Y           -17.0612438102      -43.0184513127       -7.5629376016  MEMB      287             0.0000000000
     33409       287  POPE      C39           -16.4766365052      -41.1032608256       -8.6091185223  MEMB      287             0.0000000000
     33410       287  POPE      H9X           -17.4618514195      -40.5905005615       -8.5817370876  MEMB      287             0.0000000000
     33411       287  POPE      H9Y           -15.9133023614      -40.9496007620       -9.5542986772  MEMB      287             0.0000000000
     33412       287  POPE      C310          -15.5678298521      -40.5980855615       -7.5143290734  MEMB      287             0.0000000000
     33413       287  POPE      H10X          -14.7609829198      -39.9118152302       -7.8495184363  MEMB      287             0.0000000000
     33414       287  POPE      H10Y          -15.0307779014      -41.5509691578       -7.3196256923  MEMB      287             0.0000000000
     33415       287  POPE      C311          -16.2928624445      -40.0091438987       -6.3119170118  MEMB      287             0.0000000000
     33416       287  POPE      H11X          -17.2126403542      -40.6318996620       -6.2894436647  MEMB      287             0.0000000000
     33417       287  POPE      H11Y          -16.6834586028      -38.9735194845       -6.4080286636  MEMB      287             0.0000000000
     33418       287  POPE      C312          -15.5188986481      -40.2646876576       -5.0245658155  MEMB      287             0.0000000000
     33419       287  POPE      H12X          -14.7048574842      -39.5101868380       -4.9757121274  MEMB      287             0.0000000000
     33420       287  POPE      H12Y          -15.0664783725      -41.2754758092       -5.1136956034  MEMB      287             0.0000000000
     33421       287  POPE      C313          -16.3109848359      -40.2332792807       -3.7364360265  MEMB      287             0.0000000000
     33422       287  POPE      H13X          -16.5797243938      -39.1688436216       -3.5659160239  MEMB      287             0.0000000000
     33423       287  POPE      H13Y          -15.6969578040      -40.3869366926       -2.8233741824  MEMB      287             0.0000000000
     33424       287  POPE      C314          -17.6518451424      -41.0409948106       -3.5804063107  MEMB      287             0.0000000000
     33425       287  POPE      H14X          -18.3551050109      -40.9163417492       -4.4314105463  MEMB      287             0.0000000000
     33426       287  POPE      H14Y          -18.1571409085      -40.6544519437       -2.6695925350  MEMB      287             0.0000000000
     33427       287  POPE      C315          -17.5094859288      -42.5379216506       -3.3819630550  MEMB      287             0.0000000000
     33428       287  POPE      H15X          -16.6808646751      -42.7824554065       -2.6834563793  MEMB      287             0.0000000000
     33429       287  POPE      H15Y          -17.2169206114      -43.0640870321       -4.3157064886  MEMB      287             0.0000000000
     33430       287  POPE      C316          -18.7435099757      -43.1760171645       -2.8258506916  MEMB      287             0.0000000000
     33431       287  POPE      H16X          -19.5878119932      -42.4559106767       -2.7717943396  MEMB      287             0.0000000000
     33432       287  POPE      H16Y          -18.6212058764      -43.4936155878       -1.7682627827  MEMB      287             0.0000000000
     33433       287  POPE      H16Z          -19.0167364034      -43.9762056359       -3.5465220941  MEMB      287             0.0000000000
     33434       288  POPE      N              42.8092775975       28.9805227608      -17.6641955992  MEMB      288             0.0000000000
     33435       288  POPE      HN1            42.9459503202       28.6582642355      -18.6435167320  MEMB      288             0.0000000000
     33436       288  POPE      HN2            43.7286842774       29.0999918072      -17.1930072639  MEMB      288             0.0000000000
     33437       288  POPE      HN3            42.1934641463       28.3043414954      -17.1690664556  MEMB      288             0.0000000000
     33438       288  POPE      C12            42.3454829715       30.4043695026      -17.7466941016  MEMB      288             0.0000000000
     33439       288  POPE      H12A           43.2194790506       31.0266642779      -18.0351405436  MEMB      288             0.0000000000
     33440       288  POPE      H12B           42.1715544678       30.6672190341      -16.6813397034  MEMB      288             0.0000000000
     33441       288  POPE      C11            41.1198266320       30.5009219898      -18.7248092133  MEMB      288             0.0000000000
     33442       288  POPE      H11A           41.4519089576       30.3855538024      -19.7787221724  MEMB      288             0.0000000000
     33443       288  POPE      H11B           40.6577515295       31.5062342528      -18.6240372678  MEMB      288             0.0000000000
     33444       288  POPE      P              39.1864011408       29.0364523269      -19.6919964957  MEMB      288             0.0000000000
     33445       288  POPE      O13            39.5222006281       27.6348626684      -20.0632202510  MEMB      288             0.0000000000
     33446       288  POPE      O14            38.9750062300       30.0165376004      -20.7580516707  MEMB      288             0.0000000000
     33447       288  POPE      O11            37.8619461100       28.9738086796      -18.8976672293  MEMB      288             0.0000000000
     33448       288  POPE      O12            40.1835434878       29.5112172714      -18.4533654378  MEMB      288             0.0000000000
     33449       288  POPE      C1             37.0410789590       30.1049973886      -18.6981317188  MEMB      288             0.0000000000
     33450       288  POPE      HA             36.0821818843       30.0130247154      -19.2516461885  MEMB      288             0.0000000000
     33451       288  POPE      HB             37.4904762737       31.0741209063      -19.0033578649  MEMB      288             0.0000000000
     33452       288  POPE      C2             36.6371305299       30.1482800101      -17.1463266298  MEMB      288             0.0000000000
     33453       288  POPE      HS             35.9567732904       31.0164232593      -17.0130516167  MEMB      288             0.0000000000
     33454       288  POPE      O21            37.8020340871       30.3334229699      -16.2531327385  MEMB      288             0.0000000000
     33455       288  POPE      C21            37.6073538853       30.8080321623      -15.1132308315  MEMB      288             0.0000000000
     33456       288  POPE      O22            36.4837201694       31.0141715727      -14.6236831229  MEMB      288             0.0000000000
     33457       288  POPE      C22            38.9235531334       31.2291445414      -14.5061353103  MEMB      288             0.0000000000
     33458       288  POPE      H2R            38.7852705052       32.0894414325      -13.8168688886  MEMB      288             0.0000000000
     33459       288  POPE      H2S            39.5936596051       31.5338561639      -15.3382587049  MEMB      288             0.0000000000
     33460       288  POPE      C3             35.8770320589       28.8688855592      -16.7553536255  MEMB      288             0.0000000000
     33461       288  POPE      HX             35.1372974919       28.7807393568      -17.5795771119  MEMB      288             0.0000000000
     33462       288  POPE      HY             35.3861820290       28.9804186818      -15.7649256927  MEMB      288             0.0000000000
     33463       288  POPE      O31            36.6022608859       27.6490857649      -16.8091617193  MEMB      288             0.0000000000
     33464       288  POPE      C31            37.2270062991       27.3281891356      -15.7033146812  MEMB      288             0.0000000000
     33465       288  POPE      O32            37.0551975030       27.7996616322      -14.5996897726  MEMB      288             0.0000000000
     33466       288  POPE      C32            38.1842000934       26.2135341116      -16.0368291245  MEMB      288             0.0000000000
     33467       288  POPE      H2X            37.8277698623       25.5312119804      -16.8379000201  MEMB      288             0.0000000000
     33468       288  POPE      H2Y            38.2431905496       25.5754860705      -15.1292303482  MEMB      288             0.0000000000
     33469       288  POPE      C23            39.5646351518       29.9959385421      -13.8694007456  MEMB      288             0.0000000000
     33470       288  POPE      H3R            39.4542181378       29.1581435563      -14.5906694666  MEMB      288             0.0000000000
     33471       288  POPE      H3S            39.0958637935       29.6044603656      -12.9413279691  MEMB      288             0.0000000000
     33472       288  POPE      C24            41.0907322883       30.2198993291      -13.6386042303  MEMB      288             0.0000000000
     33473       288  POPE      H4R            41.5697210946       30.4532513368      -14.6135082231  MEMB      288             0.0000000000
     33474       288  POPE      H4S            41.4562604079       29.2327246737      -13.2833628990  MEMB      288             0.0000000000
     33475       288  POPE      C25            41.4084440983       31.3654814037      -12.6231212017  MEMB      288             0.0000000000
     33476       288  POPE      H5R            40.8721673387       32.3050868387      -12.8758462821  MEMB      288             0.0000000000
     33477       288  POPE      H5S            42.4933887092       31.5966827324      -12.6844582327  MEMB      288             0.0000000000
     33478       288  POPE      C26            41.2642062303       30.8356343779      -11.1642537860  MEMB      288             0.0000000000
     33479       288  POPE      H6R            42.2578240159       30.5895952951      -10.7323862814  MEMB      288             0.0000000000
     33480       288  POPE      H6S            40.7129931864       29.8738805308      -11.2385145326  MEMB      288             0.0000000000
     33481       288  POPE      C27            40.3012311131       31.6814227410      -10.2432050015  MEMB      288             0.0000000000
     33482       288  POPE      H7R            40.1556051092       31.1209526337       -9.2950556544  MEMB      288             0.0000000000
     33483       288  POPE      H7S            39.3203123353       31.9617085366      -10.6831584127  MEMB      288             0.0000000000
     33484       288  POPE      C28            40.8807280611       33.1041851384       -9.8598246321  MEMB      288             0.0000000000
     33485       288  POPE      H8R            40.2864937256       33.6365542155       -9.0866562750  MEMB      288             0.0000000000
     33486       288  POPE      H8S            40.9826664417       33.7871920312      -10.7301298774  MEMB      288             0.0000000000
     33487       288  POPE      C29            42.2754385844       32.8837666000       -9.3353879134  MEMB      288             0.0000000000
     33488       288  POPE      H91            43.0071481998       33.0254797786      -10.1444105328  MEMB      288             0.0000000000
     33489       288  POPE      C210           42.6342931466       32.5332487156       -8.1103795805  MEMB      288             0.0000000000
     33490       288  POPE      H101           43.6975639690       32.5133903536       -7.8292019775  MEMB      288             0.0000000000
     33491       288  POPE      C211           41.6954242366       32.3018257422       -7.0233995551  MEMB      288             0.0000000000
     33492       288  POPE      H11R           41.1452424610       31.3464049575       -7.1604842438  MEMB      288             0.0000000000
     33493       288  POPE      H11S           41.0085841795       33.1572394198       -6.8477891662  MEMB      288             0.0000000000
     33494       288  POPE      C212           42.3902108629       32.0063593126       -5.6608934434  MEMB      288             0.0000000000
     33495       288  POPE      H12R           42.8421219879       32.9740453923       -5.3548198349  MEMB      288             0.0000000000
     33496       288  POPE      H12S           43.2605845702       31.3158822590       -5.6574165235  MEMB      288             0.0000000000
     33497       288  POPE      C213           41.4403314894       31.6007047650       -4.4991069599  MEMB      288             0.0000000000
     33498       288  POPE      H13R           42.1516675228       31.3971338276       -3.6703244218  MEMB      288             0.0000000000
     33499       288  POPE      H13S           40.9671966572       30.6387547406       -4.7908546812  MEMB      288             0.0000000000
     33500       288  POPE      C214           40.2911273126       32.5639645786       -4.0814723808  MEMB      288             0.0000000000
     33501       288  POPE      H14R           39.6579717328       32.6184455302       -4.9927717298  MEMB      288             0.0000000000
     33502       288  POPE      H14S           40.6000407114       33.5815182254       -3.7597907592  MEMB      288             0.0000000000
     33503       288  POPE      C215           39.3710047964       31.8838354013       -3.0697121154  MEMB      288             0.0000000000
     33504       288  POPE      H15R           39.2039527763       30.8536196140       -3.4505924558  MEMB      288             0.0000000000
     33505       288  POPE      H15S           38.3585843828       32.3365796939       -3.0037629909  MEMB      288             0.0000000000
     33506       288  POPE      C216           40.0416355502       31.8413635052       -1.6745076935  MEMB      288             0.0000000000
     33507       288  POPE      H16R           40.4791631708       32.8475809811       -1.5001019450  MEMB      288             0.0000000000
     33508       288  POPE      H16S           40.8514200016       31.0838795660       -1.7437065631  MEMB      288             0.0000000000
     33509       288  POPE      C217           39.0791572930       31.4804160682       -0.5483056207  MEMB      288             0.0000000000
     33510       288  POPE      H17R           38.1931624398       32.0949440408       -0.8160567419  MEMB      288             0.0000000000
     33511       288  POPE      H17S           39.5922526131       31.7753402866        0.3919468460  MEMB      288             0.0000000000
     33512       288  POPE      C218           38.6470937064       30.0501566698       -0.5352332184  MEMB      288             0.0000000000
     33513       288  POPE      H18R           37.8770677369       29.9057216865        0.2524964224  MEMB      288             0.0000000000
     33514       288  POPE      H18S           39.3945383302       29.2496131429       -0.3487445527  MEMB      288             0.0000000000
     33515       288  POPE      H18T           38.2053198360       29.8965214237       -1.5429808962  MEMB      288             0.0000000000
     33516       288  POPE      C33            39.5865625043       26.7346268200      -16.3575564174  MEMB      288             0.0000000000
     33517       288  POPE      H3X            40.0180583242       27.4990785233      -15.6765674329  MEMB      288             0.0000000000
     33518       288  POPE      H3Y            39.6736783842       27.0767029096      -17.4109867553  MEMB      288             0.0000000000
     33519       288  POPE      C34            40.7185226489       25.6619384660      -16.2311282605  MEMB      288             0.0000000000
     33520       288  POPE      H4X            41.6486062667       26.0486451033      -16.6998749436  MEMB      288             0.0000000000
     33521       288  POPE      H4Y            40.4826333717       24.7471508800      -16.8157997023  MEMB      288             0.0000000000
     33522       288  POPE      C35            40.9751445167       25.2769350798      -14.6978843522  MEMB      288             0.0000000000
     33523       288  POPE      H5X            41.3978106864       24.2498469219      -14.7255218836  MEMB      288             0.0000000000
     33524       288  POPE      H5Y            39.9913489213       25.2423998276      -14.1828364103  MEMB      288             0.0000000000
     33525       288  POPE      C36            41.7410671468       26.3091510529      -13.8699220638  MEMB      288             0.0000000000
     33526       288  POPE      H6X            41.3430472059       27.3462019527      -13.8905678647  MEMB      288             0.0000000000
     33527       288  POPE      H6Y            42.7637573962       26.4648314755      -14.2751249518  MEMB      288             0.0000000000
     33528       288  POPE      C37            41.7971497091       25.8851509077      -12.3441598872  MEMB      288             0.0000000000
     33529       288  POPE      H7X            42.7387535219       26.3790850891      -12.0220851276  MEMB      288             0.0000000000
     33530       288  POPE      H7Y            41.8217806814       24.7803301298      -12.2297674344  MEMB      288             0.0000000000
     33531       288  POPE      C38            40.5046781873       26.2439633688      -11.5328584345  MEMB      288             0.0000000000
     33532       288  POPE      H8X            39.8055508822       25.4841491822      -11.9430103935  MEMB      288             0.0000000000
     33533       288  POPE      H8Y            40.1898769411       27.2681787881      -11.8264633354  MEMB      288             0.0000000000
     33534       288  POPE      C39            40.5143630260       25.9949291282      -10.0731601063  MEMB      288             0.0000000000
     33535       288  POPE      H9X            40.4996474619       24.9043531537       -9.8616210887  MEMB      288             0.0000000000
     33536       288  POPE      H9Y            39.5663104215       26.3714835339       -9.6330192393  MEMB      288             0.0000000000
     33537       288  POPE      C310           41.6860643126       26.6135894266       -9.3625712976  MEMB      288             0.0000000000
     33538       288  POPE      H10X           41.5139112179       27.6977135421       -9.5339174666  MEMB      288             0.0000000000
     33539       288  POPE      H10Y           42.6242848950       26.2514631310       -9.8347235689  MEMB      288             0.0000000000
     33540       288  POPE      C311           41.7209547496       26.1884226794       -7.9013173786  MEMB      288             0.0000000000
     33541       288  POPE      H11X           42.6965639854       26.6019420256       -7.5673871163  MEMB      288             0.0000000000
     33542       288  POPE      H11Y           41.6926489618       25.0908639146       -7.7313630531  MEMB      288             0.0000000000
     33543       288  POPE      C312           40.7400596557       26.8237559541       -6.9399718974  MEMB      288             0.0000000000
     33544       288  POPE      H12X           39.7256740097       26.4397036228       -7.1804858515  MEMB      288             0.0000000000
     33545       288  POPE      H12Y           40.7315161399       27.8998664007       -7.2160778396  MEMB      288             0.0000000000
     33546       288  POPE      C313           40.9147631359       26.6856394471       -5.4452602336  MEMB      288             0.0000000000
     33547       288  POPE      H13X           40.6283628490       25.6437709054       -5.1867916351  MEMB      288             0.0000000000
     33548       288  POPE      H13Y           40.1909463659       27.3352068029       -4.9081636292  MEMB      288             0.0000000000
     33549       288  POPE      C314           42.2944839424       26.9689920905       -4.9056011137  MEMB      288             0.0000000000
     33550       288  POPE      H14X           42.5190221896       28.0262709465       -5.1626321648  MEMB      288             0.0000000000
     33551       288  POPE      H14Y           43.0354768464       26.3572551178       -5.4633004855  MEMB      288             0.0000000000
     33552       288  POPE      C315           42.4777147169       26.8263716149       -3.3622713979  MEMB      288             0.0000000000
     33553       288  POPE      H15X           42.1831093388       25.8051519227       -3.0387920351  MEMB      288             0.0000000000
     33554       288  POPE      H15Y           41.7883094895       27.5451947681       -2.8699960666  MEMB      288             0.0000000000
     33555       288  POPE      C316           43.8882328008       27.2827617695       -2.7649167894  MEMB      288             0.0000000000
     33556       288  POPE      H16X           43.6841627972       27.2639714367       -1.6729812851  MEMB      288             0.0000000000
     33557       288  POPE      H16Y           44.1959927120       28.3106796634       -3.0529970313  MEMB      288             0.0000000000
     33558       288  POPE      H16Z           44.5507709940       26.4969842369       -3.1867197377  MEMB      288             0.0000000000
     33559       289  POPE      N              32.8308487899       38.2415582296      -20.5569647318  MEMB      289             0.0000000000
     33560       289  POPE      HN1            33.6140874539       37.5809395929      -20.3788626922  MEMB      289             0.0000000000
     33561       289  POPE      HN2            32.8889967484       38.2784736455      -21.5946814704  MEMB      289             0.0000000000
     33562       289  POPE      HN3            32.9985440682       39.1708254844      -20.1211428631  MEMB      289             0.0000000000
     33563       289  POPE      C12            31.5763634175       37.5957594518      -20.0908793392  MEMB      289             0.0000000000
     33564       289  POPE      H12A           31.7023458696       37.2131116868      -19.0554904878  MEMB      289             0.0000000000
     33565       289  POPE      H12B           31.2847922289       36.6867526211      -20.6592222596  MEMB      289             0.0000000000
     33566       289  POPE      C11            30.3209766227       38.5338174915      -20.1586410368  MEMB      289             0.0000000000
     33567       289  POPE      H11A           29.5671553093       37.9733334908      -19.5654023071  MEMB      289             0.0000000000
     33568       289  POPE      H11B           29.9219603419       38.5233936686      -21.1954623721  MEMB      289             0.0000000000
     33569       289  POPE      P              30.8085705798       40.1993624460      -18.1991857488  MEMB      289             0.0000000000
     33570       289  POPE      O13            30.8644210024       41.6631195911      -18.1550857917  MEMB      289             0.0000000000
     33571       289  POPE      O14            31.9216568610       39.4518588055      -17.6302479557  MEMB      289             0.0000000000
     33572       289  POPE      O11            29.4964183864       39.6091746576      -17.4798046130  MEMB      289             0.0000000000
     33573       289  POPE      O12            30.5987347252       39.8353109391      -19.7291907807  MEMB      289             0.0000000000
     33574       289  POPE      C1             28.2634891691       40.3122956900      -17.4526440355  MEMB      289             0.0000000000
     33575       289  POPE      HA             27.8411358058       40.1054108762      -18.4591913115  MEMB      289             0.0000000000
     33576       289  POPE      HB             28.4331459911       41.3825330068      -17.2074301353  MEMB      289             0.0000000000
     33577       289  POPE      C2             27.1220764649       39.7428335660      -16.5156477439  MEMB      289             0.0000000000
     33578       289  POPE      HS             26.1768162556       40.2935449360      -16.7093518301  MEMB      289             0.0000000000
     33579       289  POPE      O21            27.5384991834       39.9115729500      -15.1305290982  MEMB      289             0.0000000000
     33580       289  POPE      C21            27.4998920126       41.0759310845      -14.5903527141  MEMB      289             0.0000000000
     33581       289  POPE      O22            27.2843008016       42.1451484890      -15.1094000865  MEMB      289             0.0000000000
     33582       289  POPE      C22            27.8961506625       40.8940892181      -13.1132920982  MEMB      289             0.0000000000
     33583       289  POPE      H2R            28.5457388062       41.7414833226      -12.8062423398  MEMB      289             0.0000000000
     33584       289  POPE      H2S            28.4308874044       39.9275013498      -12.9946090238  MEMB      289             0.0000000000
     33585       289  POPE      C3             26.8011881260       38.1914545791      -16.7831889950  MEMB      289             0.0000000000
     33586       289  POPE      HX             26.3871780810       38.1396927292      -17.8128672476  MEMB      289             0.0000000000
     33587       289  POPE      HY             26.0486540614       37.8659246927      -16.0334936465  MEMB      289             0.0000000000
     33588       289  POPE      O31            27.9964841778       37.3596790902      -16.6899216201  MEMB      289             0.0000000000
     33589       289  POPE      C31            28.2329446554       36.9064538487      -15.4558151166  MEMB      289             0.0000000000
     33590       289  POPE      O32            27.5039226833       37.1060936037      -14.4755383174  MEMB      289             0.0000000000
     33591       289  POPE      C32            29.4716375915       36.0560791668      -15.4305600693  MEMB      289             0.0000000000
     33592       289  POPE      H2X            29.7601011539       35.9948774723      -16.5017109547  MEMB      289             0.0000000000
     33593       289  POPE      H2Y            29.2293998791       35.0124643610      -15.1364342489  MEMB      289             0.0000000000
     33594       289  POPE      C23            26.6240396801       40.7838228729      -12.3094265180  MEMB      289             0.0000000000
     33595       289  POPE      H3R            26.1400775345       39.8180890358      -12.5691575418  MEMB      289             0.0000000000
     33596       289  POPE      H3S            25.8500597568       41.4734582550      -12.7090253096  MEMB      289             0.0000000000
     33597       289  POPE      C24            26.7577863569       40.9683428700      -10.7871589008  MEMB      289             0.0000000000
     33598       289  POPE      H4R            25.7878220090       41.1429937890      -10.2743364846  MEMB      289             0.0000000000
     33599       289  POPE      H4S            27.4468903253       41.7746419494      -10.4564953514  MEMB      289             0.0000000000
     33600       289  POPE      C25            27.2575591895       39.6366604546      -10.1253884098  MEMB      289             0.0000000000
     33601       289  POPE      H5R            27.2228143532       39.7183947700       -9.0179443639  MEMB      289             0.0000000000
     33602       289  POPE      H5S            28.3162258118       39.6608141630      -10.4614881295  MEMB      289             0.0000000000
     33603       289  POPE      C26            26.4971909477       38.3724288985      -10.4452725191  MEMB      289             0.0000000000
     33604       289  POPE      H6R            26.6525160411       37.9691308878      -11.4687694516  MEMB      289             0.0000000000
     33605       289  POPE      H6S            25.3949867581       38.4198327108      -10.3140513126  MEMB      289             0.0000000000
     33606       289  POPE      C27            26.8438926110       37.1832310578       -9.4519468897  MEMB      289             0.0000000000
     33607       289  POPE      H7R            26.1720047502       36.3071869487       -9.5761800314  MEMB      289             0.0000000000
     33608       289  POPE      H7S            26.7586283623       37.5998532763       -8.4255571957  MEMB      289             0.0000000000
     33609       289  POPE      C28            28.3489387975       36.7157623415       -9.7433988926  MEMB      289             0.0000000000
     33610       289  POPE      H8R            28.9073330435       37.5642507998      -10.1934932580  MEMB      289             0.0000000000
     33611       289  POPE      H8S            28.3009362508       35.9146355141      -10.5116521253  MEMB      289             0.0000000000
     33612       289  POPE      C29            29.1459526884       36.0165342951       -8.6446100821  MEMB      289             0.0000000000
     33613       289  POPE      H91            29.0714550610       34.9195498907       -8.6118166830  MEMB      289             0.0000000000
     33614       289  POPE      C210           29.9604423310       36.6187197847       -7.8099636107  MEMB      289             0.0000000000
     33615       289  POPE      H101           30.4254702651       35.9288631828       -7.0903474977  MEMB      289             0.0000000000
     33616       289  POPE      C211           30.3095901364       38.0792443933       -7.7553820035  MEMB      289             0.0000000000
     33617       289  POPE      H11R           30.4012934073       38.5644396579       -8.7506189325  MEMB      289             0.0000000000
     33618       289  POPE      H11S           31.2204218470       38.1612263764       -7.1245205298  MEMB      289             0.0000000000
     33619       289  POPE      C212           29.2917356167       38.9410842637       -6.9778337357  MEMB      289             0.0000000000
     33620       289  POPE      H12R           28.2664091951       38.5993999380       -7.2352804836  MEMB      289             0.0000000000
     33621       289  POPE      H12S           29.2907634494       40.0098380270       -7.2812899995  MEMB      289             0.0000000000
     33622       289  POPE      C213           29.5168816465       38.8462365717       -5.4421814331  MEMB      289             0.0000000000
     33623       289  POPE      H13R           30.3363815949       39.4629171046       -5.0150442922  MEMB      289             0.0000000000
     33624       289  POPE      H13S           29.8428920643       37.8204816882       -5.1667443712  MEMB      289             0.0000000000
     33625       289  POPE      C214           28.1181545586       39.0681707171       -4.7019781454  MEMB      289             0.0000000000
     33626       289  POPE      H14R           27.4792768656       38.2756682365       -5.1470577196  MEMB      289             0.0000000000
     33627       289  POPE      H14S           27.8749604648       40.1097731992       -5.0023803225  MEMB      289             0.0000000000
     33628       289  POPE      C215           28.3355950327       38.9026207230       -3.1804338977  MEMB      289             0.0000000000
     33629       289  POPE      H15R           28.6787823193       37.8722044263       -2.9463697267  MEMB      289             0.0000000000
     33630       289  POPE      H15S           27.3776610603       38.8827255232       -2.6180385183  MEMB      289             0.0000000000
     33631       289  POPE      C216           29.0598580427       40.0872078859       -2.5238455225  MEMB      289             0.0000000000
     33632       289  POPE      H16R           28.8569971252       41.0499690155       -3.0398487783  MEMB      289             0.0000000000
     33633       289  POPE      H16S           30.1402662168       40.0417164638       -2.7787365784  MEMB      289             0.0000000000
     33634       289  POPE      C217           28.9537410477       40.2105239146       -1.0688246271  MEMB      289             0.0000000000
     33635       289  POPE      H17R           29.1168647389       39.2294164366       -0.5737099822  MEMB      289             0.0000000000
     33636       289  POPE      H17S           27.9249937456       40.5191162709       -0.7846234876  MEMB      289             0.0000000000
     33637       289  POPE      C218           29.8991935863       41.2967696299       -0.6045722363  MEMB      289             0.0000000000
     33638       289  POPE      H18R           29.5785927713       42.2626435154       -1.0502438243  MEMB      289             0.0000000000
     33639       289  POPE      H18S           30.9661908449       41.0366611052       -0.7724447207  MEMB      289             0.0000000000
     33640       289  POPE      H18T           29.7887568512       41.4208524748        0.4939405332  MEMB      289             0.0000000000
     33641       289  POPE      C33            30.6426521859       36.6326419230      -14.6876448621  MEMB      289             0.0000000000
     33642       289  POPE      H3X            30.9021841505       37.6635151920      -15.0105447817  MEMB      289             0.0000000000
     33643       289  POPE      H3Y            31.4967415835       35.9477860660      -14.8769192186  MEMB      289             0.0000000000
     33644       289  POPE      C34            30.4466282997       36.5743574768      -13.1475364929  MEMB      289             0.0000000000
     33645       289  POPE      H4X            30.3788458757       35.5053544032      -12.8526476548  MEMB      289             0.0000000000
     33646       289  POPE      H4Y            29.5324175913       37.1768543815      -12.9590232694  MEMB      289             0.0000000000
     33647       289  POPE      C35            31.6555262157       37.1442627533      -12.4207888712  MEMB      289             0.0000000000
     33648       289  POPE      H5X            32.4339296814       37.0704135861      -13.2100638838  MEMB      289             0.0000000000
     33649       289  POPE      H5Y            31.8941976115       36.5325519130      -11.5245932146  MEMB      289             0.0000000000
     33650       289  POPE      C36            31.6271092655       38.5933646000      -11.9257658476  MEMB      289             0.0000000000
     33651       289  POPE      H6X            30.9163070677       38.6710880287      -11.0754478893  MEMB      289             0.0000000000
     33652       289  POPE      H6Y            31.2663057529       39.3302684276      -12.6748414495  MEMB      289             0.0000000000
     33653       289  POPE      C37            32.9742636321       39.1218836051      -11.3828764845  MEMB      289             0.0000000000
     33654       289  POPE      H7X            33.7419178283       38.7892480605      -12.1138902076  MEMB      289             0.0000000000
     33655       289  POPE      H7Y            33.2348106491       38.7590380955      -10.3656352128  MEMB      289             0.0000000000
     33656       289  POPE      C38            33.0104221900       40.7383146085      -11.4377265222  MEMB      289             0.0000000000
     33657       289  POPE      H8X            33.2109074512       41.1283872187      -12.4584961894  MEMB      289             0.0000000000
     33658       289  POPE      H8Y            33.9215842096       41.0883106501      -10.9070595714  MEMB      289             0.0000000000
     33659       289  POPE      C39            31.8829085045       41.5399423557      -10.7794427440  MEMB      289             0.0000000000
     33660       289  POPE      H9X            30.9065495090       41.3039098962      -11.2541351147  MEMB      289             0.0000000000
     33661       289  POPE      H9Y            32.1597570859       42.5443173180      -11.1653276399  MEMB      289             0.0000000000
     33662       289  POPE      C310           31.8819350158       41.3236769898       -9.2720568016  MEMB      289             0.0000000000
     33663       289  POPE      H10X           32.8808131311       41.0487606815       -8.8708272932  MEMB      289             0.0000000000
     33664       289  POPE      H10Y           31.2729610903       40.4121754244       -9.0914000046  MEMB      289             0.0000000000
     33665       289  POPE      C311           31.1150288806       42.3937480785       -8.5122783805  MEMB      289             0.0000000000
     33666       289  POPE      H11X           30.0226606610       42.3127996827       -8.6980205244  MEMB      289             0.0000000000
     33667       289  POPE      H11Y           31.5761084686       43.3594009642       -8.8110111616  MEMB      289             0.0000000000
     33668       289  POPE      C312           31.2599671864       42.2366686109       -6.9395827933  MEMB      289             0.0000000000
     33669       289  POPE      H12X           31.1039120632       41.1961703414       -6.5827479050  MEMB      289             0.0000000000
     33670       289  POPE      H12Y           30.4470746701       42.8611850964       -6.5112065543  MEMB      289             0.0000000000
     33671       289  POPE      C313           32.6692900178       42.6048849681       -6.5665206663  MEMB      289             0.0000000000
     33672       289  POPE      H13X           32.9677183944       43.5763295755       -7.0154715188  MEMB      289             0.0000000000
     33673       289  POPE      H13Y           33.4281820791       41.8173146064       -6.7618070740  MEMB      289             0.0000000000
     33674       289  POPE      C314           32.7610786579       42.7815620666       -5.0867501984  MEMB      289             0.0000000000
     33675       289  POPE      H14X           31.8777433351       43.3986267826       -4.8160640302  MEMB      289             0.0000000000
     33676       289  POPE      H14Y           33.6570427217       43.3628387754       -4.7806668833  MEMB      289             0.0000000000
     33677       289  POPE      C315           32.5780656270       41.4285984731       -4.2657949372  MEMB      289             0.0000000000
     33678       289  POPE      H15X           33.1885087233       40.6491867463       -4.7699748292  MEMB      289             0.0000000000
     33679       289  POPE      H15Y           31.4825387218       41.2505832571       -4.3153152224  MEMB      289             0.0000000000
     33680       289  POPE      C316           32.8606630362       41.3744672929       -2.7917854344  MEMB      289             0.0000000000
     33681       289  POPE      H16X           32.3882206634       42.2551258328       -2.3064402371  MEMB      289             0.0000000000
     33682       289  POPE      H16Y           33.9433762845       41.5118546853       -2.5839922613  MEMB      289             0.0000000000
     33683       289  POPE      H16Z           32.4014780797       40.5050160086       -2.2745571800  MEMB      289             0.0000000000
     33684       290  POPC      N              49.3116804345        7.4755139848      -19.5965690344  MEMB      290             0.0000000000
     33685       290  POPC      C12            47.9299809568        7.2579330387      -20.0272131775  MEMB      290             0.0000000000
     33686       290  POPC      H12A           47.7290575363        7.9123125514      -20.8625678253  MEMB      290             0.0000000000
     33687       290  POPC      H12B           47.4159420420        7.6996079522      -19.1863283217  MEMB      290             0.0000000000
     33688       290  POPC      C13            50.1948739165        6.5798080205      -20.4254950374  MEMB      290             0.0000000000
     33689       290  POPC      H13A           51.1690260923        6.7665177219      -19.9982160478  MEMB      290             0.0000000000
     33690       290  POPC      H13B           49.9005834858        5.5457121328      -20.3233246085  MEMB      290             0.0000000000
     33691       290  POPC      H13C           50.2023739601        6.9483181771      -21.4406522613  MEMB      290             0.0000000000
     33692       290  POPC      C14            49.6198763212        8.8890820460      -19.8462821316  MEMB      290             0.0000000000
     33693       290  POPC      H14A           49.6291218333        8.9286620086      -20.9255169738  MEMB      290             0.0000000000
     33694       290  POPC      H14B           48.7894569794        9.4491978259      -19.4424580561  MEMB      290             0.0000000000
     33695       290  POPC      H14C           50.5707069989        9.2454003095      -19.4783711953  MEMB      290             0.0000000000
     33696       290  POPC      C15            49.4184881281        7.1387786875      -18.0922082142  MEMB      290             0.0000000000
     33697       290  POPC      H15A           50.4465335142        7.2674761601      -17.7873154362  MEMB      290             0.0000000000
     33698       290  POPC      H15B           49.1615493236        6.1276654764      -17.8128651097  MEMB      290             0.0000000000
     33699       290  POPC      H15C           48.6824165412        7.7529726230      -17.5948508251  MEMB      290             0.0000000000
     33700       290  POPC      C11            47.2483735121        5.8504802652      -20.3202607467  MEMB      290             0.0000000000
     33701       290  POPC      H11A           47.8390458859        5.4301227367      -21.1621197652  MEMB      290             0.0000000000
     33702       290  POPC      H11B           46.1624322752        6.0257421263      -20.4762600506  MEMB      290             0.0000000000
     33703       290  POPC      P              46.4761344000        4.6031112917      -18.1205814420  MEMB      290             0.0000000000
     33704       290  POPC      O13            47.2452057439        3.7810102522      -17.0978448296  MEMB      290             0.0000000000
     33705       290  POPC      O14            45.3281737629        3.9811888267      -18.7308262558  MEMB      290             0.0000000000
     33706       290  POPC      O12            47.5056834213        4.9719594970      -19.2377086959  MEMB      290             0.0000000000
     33707       290  POPC      O11            46.1157174994        6.0720116229      -17.5050104390  MEMB      290             0.0000000000
     33708       290  POPC      C1             44.7613308474        6.4397975966      -17.4017008047  MEMB      290             0.0000000000
     33709       290  POPC      HA             44.2417629735        5.6641009724      -16.7994840460  MEMB      290             0.0000000000
     33710       290  POPC      HB             44.2927772545        6.4444938742      -18.4090519738  MEMB      290             0.0000000000
     33711       290  POPC      C2             44.5642701404        7.8514128983      -16.6747096551  MEMB      290             0.0000000000
     33712       290  POPC      HS             43.5391060505        8.1735865146      -16.9567797827  MEMB      290             0.0000000000
     33713       290  POPC      O21            45.4817116381        8.8963835747      -17.0315058446  MEMB      290             0.0000000000
     33714       290  POPC      C21            45.4208749544        9.4931168329      -18.1917593780  MEMB      290             0.0000000000
     33715       290  POPC      O22            44.6461814031        9.3117729557      -19.0878733450  MEMB      290             0.0000000000
     33716       290  POPC      C22            46.3976613294       10.7053799780      -18.1502062782  MEMB      290             0.0000000000
     33717       290  POPC      H2R            45.8162325115       11.5303985315      -17.6858721554  MEMB      290             0.0000000000
     33718       290  POPC      H2S            46.6820369973       11.0227452652      -19.1762329460  MEMB      290             0.0000000000
     33719       290  POPC      C3             44.5976363928        7.7209320503      -15.1461531955  MEMB      290             0.0000000000
     33720       290  POPC      HX             43.9045811624        6.9673937351      -14.7146725140  MEMB      290             0.0000000000
     33721       290  POPC      HY             44.3704508330        8.7097629199      -14.6934712084  MEMB      290             0.0000000000
     33722       290  POPC      O31            45.9715198240        7.4603897526      -14.7688528467  MEMB      290             0.0000000000
     33723       290  POPC      C31            46.3541559609        6.6954104991      -13.8702864026  MEMB      290             0.0000000000
     33724       290  POPC      O32            45.5854589946        6.0579008849      -13.1208408824  MEMB      290             0.0000000000
     33725       290  POPC      C32            47.8841016185        6.7125056493      -13.9382716914  MEMB      290             0.0000000000
     33726       290  POPC      H2X            48.3020010187        7.5320325176      -13.3153298864  MEMB      290             0.0000000000
     33727       290  POPC      H2Y            48.1577471745        6.8299239215      -15.0086231416  MEMB      290             0.0000000000
     33728       290  POPC      C23            47.6942939474       10.4707312657      -17.3026372843  MEMB      290             0.0000000000
     33729       290  POPC      H3R            48.4899218042       11.0635945001      -17.8024479233  MEMB      290             0.0000000000
     33730       290  POPC      H3S            48.0630233697        9.4315568649      -17.4385634342  MEMB      290             0.0000000000
     33731       290  POPC      C24            47.5104990739       10.8158792366      -15.8297356657  MEMB      290             0.0000000000
     33732       290  POPC      H4R            46.5739346135       10.2603083295      -15.6094885200  MEMB      290             0.0000000000
     33733       290  POPC      H4S            47.1838290805       11.8506568824      -15.5913186864  MEMB      290             0.0000000000
     33734       290  POPC      C25            48.7574618009       10.5089927356      -14.8481720520  MEMB      290             0.0000000000
     33735       290  POPC      H5R            49.6418825302       11.0599095253      -15.2336744616  MEMB      290             0.0000000000
     33736       290  POPC      H5S            48.9769474430        9.4229535720      -14.9298199864  MEMB      290             0.0000000000
     33737       290  POPC      C26            48.4491249204       10.9587033963      -13.4583785958  MEMB      290             0.0000000000
     33738       290  POPC      H6R            48.2530426545       12.0522035130      -13.4469872281  MEMB      290             0.0000000000
     33739       290  POPC      H6S            49.2833148155       10.8066916989      -12.7405058513  MEMB      290             0.0000000000
     33740       290  POPC      C27            47.1935172655       10.3073940617      -12.8838214858  MEMB      290             0.0000000000
     33741       290  POPC      H7R            47.1297305967        9.2197386296      -13.1012113399  MEMB      290             0.0000000000
     33742       290  POPC      H7S            46.3637396503       10.8211026114      -13.4147575298  MEMB      290             0.0000000000
     33743       290  POPC      C28            47.0298966722       10.3866488265      -11.3752794363  MEMB      290             0.0000000000
     33744       290  POPC      H8R            47.3528983891       11.4255979574      -11.1503899867  MEMB      290             0.0000000000
     33745       290  POPC      H8S            47.7710568799        9.7661848145      -10.8275329995  MEMB      290             0.0000000000
     33746       290  POPC      C29            45.6313579403       10.1702796310      -10.7589935377  MEMB      290             0.0000000000
     33747       290  POPC      H91            44.9542792256       11.0345748187      -10.6914760101  MEMB      290             0.0000000000
     33748       290  POPC      C210           45.1113401921        9.0433152508      -10.2249390950  MEMB      290             0.0000000000
     33749       290  POPC      H101           44.0527669988        9.0620425260       -9.9264897312  MEMB      290             0.0000000000
     33750       290  POPC      C211           45.7584828390        7.7668344275      -10.0884745904  MEMB      290             0.0000000000
     33751       290  POPC      H11R           46.8458912359        7.8720298207      -10.2904592005  MEMB      290             0.0000000000
     33752       290  POPC      H11S           45.2539331188        7.0192266686      -10.7371910087  MEMB      290             0.0000000000
     33753       290  POPC      C212           45.7443194819        7.0737036009       -8.7069391377  MEMB      290             0.0000000000
     33754       290  POPC      H12R           46.1286949755        7.8733186965       -8.0382144418  MEMB      290             0.0000000000
     33755       290  POPC      H12S           46.4880237955        6.2510013385       -8.7731644848  MEMB      290             0.0000000000
     33756       290  POPC      C213           44.3210672092        6.6788121206       -8.2650696319  MEMB      290             0.0000000000
     33757       290  POPC      H13R           43.7800935257        6.0572486765       -9.0102732851  MEMB      290             0.0000000000
     33758       290  POPC      H13S           43.7434635284        7.6255307043       -8.3315433694  MEMB      290             0.0000000000
     33759       290  POPC      C214           44.0842715799        6.2575418092       -6.8299251915  MEMB      290             0.0000000000
     33760       290  POPC      H14R           44.5752763111        5.2633271206       -6.7608424810  MEMB      290             0.0000000000
     33761       290  POPC      H14S           42.9863672968        6.1495582642       -6.6985218409  MEMB      290             0.0000000000
     33762       290  POPC      C215           44.6703041121        7.2917000265       -5.8545696283  MEMB      290             0.0000000000
     33763       290  POPC      H15R           44.6113597983        8.3214987004       -6.2673168408  MEMB      290             0.0000000000
     33764       290  POPC      H15S           45.7433347644        7.0241444595       -5.7480779153  MEMB      290             0.0000000000
     33765       290  POPC      C216           43.9874010934        7.2813407905       -4.4705335113  MEMB      290             0.0000000000
     33766       290  POPC      H16R           44.1436099177        6.3156166517       -3.9439435749  MEMB      290             0.0000000000
     33767       290  POPC      H16S           42.9261926758        7.5560615492       -4.6513272205  MEMB      290             0.0000000000
     33768       290  POPC      C217           44.3165840323        8.5295551700       -3.5556693469  MEMB      290             0.0000000000
     33769       290  POPC      H17R           44.3637668530        9.3950761547       -4.2506282723  MEMB      290             0.0000000000
     33770       290  POPC      H17S           45.3838512457        8.5237940443       -3.2470782113  MEMB      290             0.0000000000
     33771       290  POPC      C218           43.3658365817        8.8161123434       -2.4178348164  MEMB      290             0.0000000000
     33772       290  POPC      H18R           43.7868010056        9.6604874122       -1.8311998464  MEMB      290             0.0000000000
     33773       290  POPC      H18S           43.2740160107        7.9613495359       -1.7140815087  MEMB      290             0.0000000000
     33774       290  POPC      H18T           42.3854825636        9.1296466065       -2.8360741867  MEMB      290             0.0000000000
     33775       290  POPC      C33            48.4136304206        5.3388780120      -13.4165812325  MEMB      290             0.0000000000
     33776       290  POPC      H3X            47.8524493251        4.6098888550      -14.0394549457  MEMB      290             0.0000000000
     33777       290  POPC      H3Y            48.0435935254        5.1418451188      -12.3877123849  MEMB      290             0.0000000000
     33778       290  POPC      C34            49.9261273569        5.2226845265      -13.5144921270  MEMB      290             0.0000000000
     33779       290  POPC      H4X            50.2067270248        4.7630923400      -14.4862735897  MEMB      290             0.0000000000
     33780       290  POPC      H4Y            50.2540845236        4.4163309496      -12.8241592861  MEMB      290             0.0000000000
     33781       290  POPC      C35            50.7945702718        6.4488963160      -13.2191587880  MEMB      290             0.0000000000
     33782       290  POPC      H5X            50.5177772257        7.1305466327      -14.0516604013  MEMB      290             0.0000000000
     33783       290  POPC      H5Y            51.8575910441        6.1349438289      -13.2949306333  MEMB      290             0.0000000000
     33784       290  POPC      C36            50.5381318027        7.1792586592      -11.8738774458  MEMB      290             0.0000000000
     33785       290  POPC      H6X            49.5530139885        7.6834588289      -11.7756623040  MEMB      290             0.0000000000
     33786       290  POPC      H6Y            51.2201676057        8.0558747012      -11.9001856744  MEMB      290             0.0000000000
     33787       290  POPC      C37            50.8147173012        6.3265834103      -10.6282549961  MEMB      290             0.0000000000
     33788       290  POPC      H7X            51.8977657454        6.1465327711      -10.4582286633  MEMB      290             0.0000000000
     33789       290  POPC      H7Y            50.2872480623        5.3534276270      -10.7234637461  MEMB      290             0.0000000000
     33790       290  POPC      C38            50.3474670310        6.9345523456       -9.2735259604  MEMB      290             0.0000000000
     33791       290  POPC      H8X            49.2801344910        7.1425123506       -9.5012861534  MEMB      290             0.0000000000
     33792       290  POPC      H8Y            50.9497664149        7.8429369526       -9.0581331459  MEMB      290             0.0000000000
     33793       290  POPC      C39            50.3927710784        5.8056483596       -8.1991187350  MEMB      290             0.0000000000
     33794       290  POPC      H9X            51.2573624447        5.1108764108       -8.2631103408  MEMB      290             0.0000000000
     33795       290  POPC      H9Y            49.5312913809        5.1432248054       -8.4301351945  MEMB      290             0.0000000000
     33796       290  POPC      C310           50.3114257399        6.5425193117       -6.8026894712  MEMB      290             0.0000000000
     33797       290  POPC      H10X           49.7874517293        7.5108602481       -6.9513100570  MEMB      290             0.0000000000
     33798       290  POPC      H10Y           51.3839626908        6.7455108818       -6.5958567740  MEMB      290             0.0000000000
     33799       290  POPC      C311           49.7419719430        5.7335381894       -5.5933715034  MEMB      290             0.0000000000
     33800       290  POPC      H11X           49.8091229803        6.4248048308       -4.7262137686  MEMB      290             0.0000000000
     33801       290  POPC      H11Y           50.4664379363        4.9023296789       -5.4571281155  MEMB      290             0.0000000000
     33802       290  POPC      C312           48.2911643865        5.2650303133       -5.8904811036  MEMB      290             0.0000000000
     33803       290  POPC      H12X           48.1722188182        4.5253304138       -6.7108576991  MEMB      290             0.0000000000
     33804       290  POPC      H12Y           47.6938307732        6.1954759478       -5.9990373631  MEMB      290             0.0000000000
     33805       290  POPC      C313           47.7579779004        4.5096008844       -4.5951869064  MEMB      290             0.0000000000
     33806       290  POPC      H13X           48.4734553758        3.6699835514       -4.4630678086  MEMB      290             0.0000000000
     33807       290  POPC      H13Y           46.7554442900        4.0829664539       -4.8125128317  MEMB      290             0.0000000000
     33808       290  POPC      C314           47.5756672764        5.4642699642       -3.3722097242  MEMB      290             0.0000000000
     33809       290  POPC      H14X           46.8198454046        6.2625798657       -3.5326950158  MEMB      290             0.0000000000
     33810       290  POPC      H14Y           48.5062748660        6.0482916996       -3.2072577488  MEMB      290             0.0000000000
     33811       290  POPC      C315           47.1740756708        4.7944679804       -2.0505099936  MEMB      290             0.0000000000
     33812       290  POPC      H15X           47.3807262003        5.5533780390       -1.2658633246  MEMB      290             0.0000000000
     33813       290  POPC      H15Y           47.8305969259        3.9300350155       -1.8137487680  MEMB      290             0.0000000000
     33814       290  POPC      C316           45.7655206839        4.3833363098       -2.0497978236  MEMB      290             0.0000000000
     33815       290  POPC      H16X           45.5320789857        3.7678942482       -1.1547807043  MEMB      290             0.0000000000
     33816       290  POPC      H16Y           45.5963518297        3.8606797492       -3.0154746772  MEMB      290             0.0000000000
     33817       290  POPC      H16Z           45.0825640251        5.2423781771       -1.8767711776  MEMB      290             0.0000000000
     33818       291  POPC      N              41.4636174872      -14.5535754491      -20.9654497628  MEMB      291             0.0000000000
     33819       291  POPC      C12            41.5596781275      -15.7263348525      -20.0161788577  MEMB      291             0.0000000000
     33820       291  POPC      H12A           42.5933300253      -16.0048178566      -20.1590454608  MEMB      291             0.0000000000
     33821       291  POPC      H12B           40.9772514113      -16.5746618497      -20.3440818918  MEMB      291             0.0000000000
     33822       291  POPC      C13            41.9456959310      -15.0057108548      -22.2780570257  MEMB      291             0.0000000000
     33823       291  POPC      H13A           41.2603031155      -15.7193890639      -22.7108387424  MEMB      291             0.0000000000
     33824       291  POPC      H13B           42.0619580584      -14.1219781428      -22.8878926768  MEMB      291             0.0000000000
     33825       291  POPC      H13C           42.9576378523      -15.3827781746      -22.2919716287  MEMB      291             0.0000000000
     33826       291  POPC      C14            40.0891019310      -13.9962236020      -21.0652167808  MEMB      291             0.0000000000
     33827       291  POPC      H14A           39.7618569520      -13.7305780986      -20.0708610437  MEMB      291             0.0000000000
     33828       291  POPC      H14B           40.0899735414      -13.2884621531      -21.8809819338  MEMB      291             0.0000000000
     33829       291  POPC      H14C           39.4606992993      -14.8381252775      -21.3156395627  MEMB      291             0.0000000000
     33830       291  POPC      C15            42.4775075242      -13.4793774998      -20.4593739955  MEMB      291             0.0000000000
     33831       291  POPC      H15A           43.4682745301      -13.9036489768      -20.5284714379  MEMB      291             0.0000000000
     33832       291  POPC      H15B           42.1959479901      -13.3555667402      -19.4240985915  MEMB      291             0.0000000000
     33833       291  POPC      H15C           42.3738786503      -12.5947498344      -21.0701891239  MEMB      291             0.0000000000
     33834       291  POPC      C11            41.3653578534      -15.4708413751      -18.5660738210  MEMB      291             0.0000000000
     33835       291  POPC      H11A           42.0248604228      -14.6768455077      -18.1550409667  MEMB      291             0.0000000000
     33836       291  POPC      H11B           41.5724709393      -16.4456504115      -18.0749805828  MEMB      291             0.0000000000
     33837       291  POPC      P              39.6445789284      -13.9748715665      -17.1414071861  MEMB      291             0.0000000000
     33838       291  POPC      O13            38.1776594367      -13.9739611456      -16.9905200001  MEMB      291             0.0000000000
     33839       291  POPC      O14            40.4067802668      -12.7306220633      -17.3556287176  MEMB      291             0.0000000000
     33840       291  POPC      O12            40.0160106843      -15.1911105788      -18.3107661264  MEMB      291             0.0000000000
     33841       291  POPC      O11            40.2582812283      -14.5600653159      -15.8513277256  MEMB      291             0.0000000000
     33842       291  POPC      C1             39.9417411719      -15.8461526901      -15.3049033729  MEMB      291             0.0000000000
     33843       291  POPC      HA             40.8446771664      -16.3808264011      -14.9400038437  MEMB      291             0.0000000000
     33844       291  POPC      HB             39.5686790193      -16.5801402330      -16.0508307939  MEMB      291             0.0000000000
     33845       291  POPC      C2             38.8712565495      -15.8589046493      -14.1113007128  MEMB      291             0.0000000000
     33846       291  POPC      HS             37.9180829854      -15.4309995579      -14.4890285141  MEMB      291             0.0000000000
     33847       291  POPC      O21            39.2754566755      -15.0846975559      -12.9824303336  MEMB      291             0.0000000000
     33848       291  POPC      C21            39.1499140013      -13.7598802352      -12.9500116545  MEMB      291             0.0000000000
     33849       291  POPC      O22            38.5934661667      -13.0619297592      -13.8077046958  MEMB      291             0.0000000000
     33850       291  POPC      C22            39.6216036126      -13.1159914864      -11.6186084182  MEMB      291             0.0000000000
     33851       291  POPC      H2R            38.7616074110      -12.5504401913      -11.2004222973  MEMB      291             0.0000000000
     33852       291  POPC      H2S            40.3808906011      -12.3694747190      -11.9356527523  MEMB      291             0.0000000000
     33853       291  POPC      C3             38.6917059956      -17.2497512966      -13.6089400078  MEMB      291             0.0000000000
     33854       291  POPC      HX             38.3911789714      -17.9726242972      -14.3972674005  MEMB      291             0.0000000000
     33855       291  POPC      HY             37.8587440452      -17.3120846718      -12.8764033155  MEMB      291             0.0000000000
     33856       291  POPC      O31            39.9616989929      -17.7295556508      -13.1228929895  MEMB      291             0.0000000000
     33857       291  POPC      C31            39.9997722935      -18.4521813305      -12.0729146891  MEMB      291             0.0000000000
     33858       291  POPC      O32            39.0341512969      -18.6304476475      -11.2933353841  MEMB      291             0.0000000000
     33859       291  POPC      C32            41.3874391968      -19.0533032160      -11.9546321109  MEMB      291             0.0000000000
     33860       291  POPC      H2X            42.1323411483      -18.2367040355      -12.0669180787  MEMB      291             0.0000000000
     33861       291  POPC      H2Y            41.5649247999      -19.6406874673      -12.8808071191  MEMB      291             0.0000000000
     33862       291  POPC      C23            40.0998734471      -14.1300821493      -10.6272994413  MEMB      291             0.0000000000
     33863       291  POPC      H3R            40.7213121945      -14.8914708365      -11.1453942806  MEMB      291             0.0000000000
     33864       291  POPC      H3S            39.2877638600      -14.7001256836      -10.1274502307  MEMB      291             0.0000000000
     33865       291  POPC      C24            40.9660221067      -13.5168000186       -9.5697346914  MEMB      291             0.0000000000
     33866       291  POPC      H4R            40.2874435221      -13.4120757429       -8.6963018323  MEMB      291             0.0000000000
     33867       291  POPC      H4S            41.4931690777      -12.6256584034       -9.9726033975  MEMB      291             0.0000000000
     33868       291  POPC      C25            42.1676382576      -14.3545675969       -9.0790705149  MEMB      291             0.0000000000
     33869       291  POPC      H5R            42.7428705691      -14.6803130900       -9.9719975561  MEMB      291             0.0000000000
     33870       291  POPC      H5S            41.7816372526      -15.1898535544       -8.4564783285  MEMB      291             0.0000000000
     33871       291  POPC      C26            43.0426840409      -13.4920156139       -8.1056174294  MEMB      291             0.0000000000
     33872       291  POPC      H6R            43.2590557315      -12.5918730711       -8.7198232892  MEMB      291             0.0000000000
     33873       291  POPC      H6S            44.0206654361      -13.9809984423       -7.9087184004  MEMB      291             0.0000000000
     33874       291  POPC      C27            42.5199680246      -13.1660714194       -6.6877020443  MEMB      291             0.0000000000
     33875       291  POPC      H7R            42.2776823686      -14.0120828455       -6.0095551100  MEMB      291             0.0000000000
     33876       291  POPC      H7S            41.5372833871      -12.6657449239       -6.8230734136  MEMB      291             0.0000000000
     33877       291  POPC      C28            43.4089056206      -12.0851202547       -5.9608597460  MEMB      291             0.0000000000
     33878       291  POPC      H8R            42.9879062267      -11.6173476180       -5.0452891429  MEMB      291             0.0000000000
     33879       291  POPC      H8S            43.5768085466      -11.2137097063       -6.6292707345  MEMB      291             0.0000000000
     33880       291  POPC      C29            44.7342377235      -12.6842926503       -5.5251716552  MEMB      291             0.0000000000
     33881       291  POPC      H91            45.5539233905      -12.2802754347       -6.1374511504  MEMB      291             0.0000000000
     33882       291  POPC      C210           44.9163810781      -13.6484737540       -4.6098408963  MEMB      291             0.0000000000
     33883       291  POPC      H101           45.9067840633      -13.9687433871       -4.2541312319  MEMB      291             0.0000000000
     33884       291  POPC      C211           43.8287814518      -14.2245221807       -3.7778203743  MEMB      291             0.0000000000
     33885       291  POPC      H11R           43.6424384539      -15.2019239201       -4.2720702178  MEMB      291             0.0000000000
     33886       291  POPC      H11S           42.9564614290      -13.5641999654       -3.9710902037  MEMB      291             0.0000000000
     33887       291  POPC      C212           44.1131025689      -14.3965246804       -2.2490717992  MEMB      291             0.0000000000
     33888       291  POPC      H12R           44.1671042247      -13.4145487879       -1.7322273953  MEMB      291             0.0000000000
     33889       291  POPC      H12S           45.0930320574      -14.9062881078       -2.1299056506  MEMB      291             0.0000000000
     33890       291  POPC      C213           43.0580271257      -15.2994639258       -1.5822980242  MEMB      291             0.0000000000
     33891       291  POPC      H13R           42.0427442745      -14.8862983786       -1.7634470663  MEMB      291             0.0000000000
     33892       291  POPC      H13S           43.3624033340      -15.3274468827       -0.5141707793  MEMB      291             0.0000000000
     33893       291  POPC      C214           43.1734921790      -16.8108373953       -1.9722261832  MEMB      291             0.0000000000
     33894       291  POPC      H14R           44.1368213161      -17.2278059575       -1.6082844827  MEMB      291             0.0000000000
     33895       291  POPC      H14S           43.1488859340      -16.9631079238       -3.0724672543  MEMB      291             0.0000000000
     33896       291  POPC      C215           42.1277290026      -17.6415609097       -1.1917458700  MEMB      291             0.0000000000
     33897       291  POPC      H15R           41.1125755181      -17.3899324560       -1.5665359605  MEMB      291             0.0000000000
     33898       291  POPC      H15S           42.2348855194      -17.3504691012       -0.1249258736  MEMB      291             0.0000000000
     33899       291  POPC      C216           42.3365034032      -19.1685506454       -1.4409700837  MEMB      291             0.0000000000
     33900       291  POPC      H16R           42.3347160812      -19.2678613332       -2.5475207246  MEMB      291             0.0000000000
     33901       291  POPC      H16S           41.4734495067      -19.7143920164       -1.0033439899  MEMB      291             0.0000000000
     33902       291  POPC      C217           43.6022295941      -19.8846216352       -0.8992454559  MEMB      291             0.0000000000
     33903       291  POPC      H17R           44.4062417005      -19.4459844032       -1.5281200822  MEMB      291             0.0000000000
     33904       291  POPC      H17S           43.5047170067      -20.9755414610       -1.0855433403  MEMB      291             0.0000000000
     33905       291  POPC      C218           43.8022574788      -19.6233777942        0.5994112793  MEMB      291             0.0000000000
     33906       291  POPC      H18R           44.7774303592      -20.0132891969        0.9618050250  MEMB      291             0.0000000000
     33907       291  POPC      H18S           42.9997648413      -20.1670770881        1.1422903987  MEMB      291             0.0000000000
     33908       291  POPC      H18T           43.8498796242      -18.5438285392        0.8575338279  MEMB      291             0.0000000000
     33909       291  POPC      C33            41.6684722150      -19.7483717398      -10.6710601237  MEMB      291             0.0000000000
     33910       291  POPC      H3X            42.5263625399      -20.4523076928      -10.7241609403  MEMB      291             0.0000000000
     33911       291  POPC      H3Y            40.8164269147      -20.3732549335      -10.3277511576  MEMB      291             0.0000000000
     33912       291  POPC      C34            41.9560571193      -18.7378244519       -9.5364919968  MEMB      291             0.0000000000
     33913       291  POPC      H4X            41.5692488013      -17.7517792437       -9.8717754411  MEMB      291             0.0000000000
     33914       291  POPC      H4Y            43.0564166194      -18.6501646647       -9.4106130906  MEMB      291             0.0000000000
     33915       291  POPC      C35            41.4511033031      -18.9999891100       -8.0457752176  MEMB      291             0.0000000000
     33916       291  POPC      H5X            42.3182683648      -18.9224130929       -7.3556103639  MEMB      291             0.0000000000
     33917       291  POPC      H5Y            40.9269410753      -19.9794969955       -8.0575741948  MEMB      291             0.0000000000
     33918       291  POPC      C36            40.3280139389      -18.0051908155       -7.6596153004  MEMB      291             0.0000000000
     33919       291  POPC      H6X            39.4903761717      -18.3461267627       -8.3049417401  MEMB      291             0.0000000000
     33920       291  POPC      H6Y            40.6459091657      -16.9433294183       -7.7352055436  MEMB      291             0.0000000000
     33921       291  POPC      C37            40.0363953100      -18.2829532383       -6.1408110586  MEMB      291             0.0000000000
     33922       291  POPC      H7X            40.0868446451      -19.3792620460       -5.9679430969  MEMB      291             0.0000000000
     33923       291  POPC      H7Y            38.9924323278      -18.0404072248       -5.8481789725  MEMB      291             0.0000000000
     33924       291  POPC      C38            40.8789746562      -17.5371316627       -5.0498917454  MEMB      291             0.0000000000
     33925       291  POPC      H8X            41.9612730650      -17.7834141323       -5.0978088405  MEMB      291             0.0000000000
     33926       291  POPC      H8Y            40.4878326122      -17.9931288789       -4.1153351144  MEMB      291             0.0000000000
     33927       291  POPC      C39            40.7081708262      -16.0760074944       -5.0769662026  MEMB      291             0.0000000000
     33928       291  POPC      H9X            40.7278009212      -15.6469067691       -6.1015671500  MEMB      291             0.0000000000
     33929       291  POPC      H9Y            41.6093557076      -15.6625460414       -4.5757302981  MEMB      291             0.0000000000
     33930       291  POPC      C310           39.4658850269      -15.5260066418       -4.3354996475  MEMB      291             0.0000000000
     33931       291  POPC      H10X           39.5738316642      -15.8764021976       -3.2867427283  MEMB      291             0.0000000000
     33932       291  POPC      H10Y           38.5627852696      -15.9915738820       -4.7849201760  MEMB      291             0.0000000000
     33933       291  POPC      C311           39.4545679104      -14.0305647610       -4.2156656921  MEMB      291             0.0000000000
     33934       291  POPC      H11X           39.3208525655      -13.6523115768       -5.2517001267  MEMB      291             0.0000000000
     33935       291  POPC      H11Y           40.4910623244      -13.7356908966       -3.9453884048  MEMB      291             0.0000000000
     33936       291  POPC      C312           38.5284740835      -13.5187984045       -3.1371492576  MEMB      291             0.0000000000
     33937       291  POPC      H12X           38.8904238623      -13.7966861164       -2.1241881089  MEMB      291             0.0000000000
     33938       291  POPC      H12Y           37.5344264337      -13.9874231379       -3.3001853544  MEMB      291             0.0000000000
     33939       291  POPC      C313           38.3073446808      -11.9863161729       -3.2716914094  MEMB      291             0.0000000000
     33940       291  POPC      H13X           37.6797490661      -11.6969522195       -2.4017985567  MEMB      291             0.0000000000
     33941       291  POPC      H13Y           37.6422699888      -11.7759023002       -4.1364008609  MEMB      291             0.0000000000
     33942       291  POPC      C314           39.5297571136      -11.0580795127       -3.0648189539  MEMB      291             0.0000000000
     33943       291  POPC      H14X           39.1371156200      -10.0216686121       -2.9873206267  MEMB      291             0.0000000000
     33944       291  POPC      H14Y           40.1671849354      -11.2424168051       -3.9559013594  MEMB      291             0.0000000000
     33945       291  POPC      C315           40.3211032297      -11.4320247855       -1.8592579178  MEMB      291             0.0000000000
     33946       291  POPC      H15X           41.1786895205      -10.7305578767       -1.7767314192  MEMB      291             0.0000000000
     33947       291  POPC      H15Y           40.7628217245      -12.4494228343       -1.9233448235  MEMB      291             0.0000000000
     33948       291  POPC      C316           39.5364950850      -11.2046965830       -0.5237717796  MEMB      291             0.0000000000
     33949       291  POPC      H16X           40.2850397675      -10.9988649892        0.2709832117  MEMB      291             0.0000000000
     33950       291  POPC      H16Y           38.9028248205      -12.1010215503       -0.3523542915  MEMB      291             0.0000000000
     33951       291  POPC      H16Z           38.9128885306      -10.2988371999       -0.6814234528  MEMB      291             0.0000000000
     33952       292  POPE      N              -0.4164211686       50.5578882717      -21.8464373632  MEMB      292             0.0000000000
     33953       292  POPE      HN1             0.1126172906       49.8108676037      -21.3527993045  MEMB      292             0.0000000000
     33954       292  POPE      HN2            -0.8124779582       50.1723369301      -22.7273964059  MEMB      292             0.0000000000
     33955       292  POPE      HN3             0.2453046123       51.3436850185      -22.0084324201  MEMB      292             0.0000000000
     33956       292  POPE      C12            -1.6746005035       50.7605813280      -21.1119817012  MEMB      292             0.0000000000
     33957       292  POPE      H12A           -2.1459564455       49.7764395191      -20.9031535025  MEMB      292             0.0000000000
     33958       292  POPE      H12B           -2.3762715209       51.2852006193      -21.7951750402  MEMB      292             0.0000000000
     33959       292  POPE      C11            -1.4300386914       51.5635215385      -19.8369348783  MEMB      292             0.0000000000
     33960       292  POPE      H11A           -2.3899502011       51.8891245631      -19.3821013437  MEMB      292             0.0000000000
     33961       292  POPE      H11B           -0.9185742608       52.5165802280      -20.0907145547  MEMB      292             0.0000000000
     33962       292  POPE      P               0.1600582150       51.5191273998      -17.8154826814  MEMB      292             0.0000000000
     33963       292  POPE      O13            -0.7369330785       52.6614839499      -17.5517875315  MEMB      292             0.0000000000
     33964       292  POPE      O14             1.5552210928       51.8666938978      -18.2341691766  MEMB      292             0.0000000000
     33965       292  POPE      O11             0.1102340499       50.4650826358      -16.6329775840  MEMB      292             0.0000000000
     33966       292  POPE      O12            -0.6675106807       50.7491385869      -18.9702291120  MEMB      292             0.0000000000
     33967       292  POPE      C1             -1.1522949611       50.2321856605      -15.9747456908  MEMB      292             0.0000000000
     33968       292  POPE      HA             -1.4561416736       49.1803353631      -16.1634495367  MEMB      292             0.0000000000
     33969       292  POPE      HB             -1.8992810313       50.9629070977      -16.3520770593  MEMB      292             0.0000000000
     33970       292  POPE      C2             -1.0040511828       50.5244162284      -14.4927821251  MEMB      292             0.0000000000
     33971       292  POPE      HS             -0.5733555337       51.5472864068      -14.4421975896  MEMB      292             0.0000000000
     33972       292  POPE      O21             0.0475168395       49.6133180665      -14.0472994844  MEMB      292             0.0000000000
     33973       292  POPE      C21             0.8208324229       49.9415879417      -12.9649723545  MEMB      292             0.0000000000
     33974       292  POPE      O22             0.7231175010       50.8918937790      -12.2663767754  MEMB      292             0.0000000000
     33975       292  POPE      C22             1.8641798186       48.8619340320      -12.8175703665  MEMB      292             0.0000000000
     33976       292  POPE      H2R             2.8555696182       49.2550110773      -12.5061903549  MEMB      292             0.0000000000
     33977       292  POPE      H2S             1.9178052415       48.3979485761      -13.8256195537  MEMB      292             0.0000000000
     33978       292  POPE      C3             -2.2914201514       50.2541207703      -13.7100140902  MEMB      292             0.0000000000
     33979       292  POPE      HX             -2.4597847606       49.1566939200      -13.6696550014  MEMB      292             0.0000000000
     33980       292  POPE      HY             -3.2118527362       50.6323077586      -14.2040784519  MEMB      292             0.0000000000
     33981       292  POPE      O31            -2.0850463207       50.8979926330      -12.4663100790  MEMB      292             0.0000000000
     33982       292  POPE      C31            -2.5781041534       50.3247496952      -11.3601574654  MEMB      292             0.0000000000
     33983       292  POPE      O32            -3.2172489280       49.2870863088      -11.3443513198  MEMB      292             0.0000000000
     33984       292  POPE      C32            -2.3800415023       51.3039375101      -10.2483211069  MEMB      292             0.0000000000
     33985       292  POPE      H2X            -2.0753493841       52.3416272641      -10.5026500157  MEMB      292             0.0000000000
     33986       292  POPE      H2Y            -1.6858274662       50.8383727057       -9.5164482255  MEMB      292             0.0000000000
     33987       292  POPE      C23             1.6015175906       47.7663443081      -11.7251342172  MEMB      292             0.0000000000
     33988       292  POPE      H3R             2.5114432063       47.1793421483      -11.4765695508  MEMB      292             0.0000000000
     33989       292  POPE      H3S             0.8955141979       47.0284535777      -12.1626240985  MEMB      292             0.0000000000
     33990       292  POPE      C24             1.0579560361       48.3105811198      -10.3950150999  MEMB      292             0.0000000000
     33991       292  POPE      H4R             0.0484807998       48.7421029712      -10.5655139486  MEMB      292             0.0000000000
     33992       292  POPE      H4S             1.6793683314       49.1743648989      -10.0755692113  MEMB      292             0.0000000000
     33993       292  POPE      C25             0.9852627768       47.2713338468       -9.1945036385  MEMB      292             0.0000000000
     33994       292  POPE      H5R             2.0529939519       47.0285833304       -9.0065054504  MEMB      292             0.0000000000
     33995       292  POPE      H5S             0.4213522208       46.3829657429       -9.5510538158  MEMB      292             0.0000000000
     33996       292  POPE      C26             0.3873268111       47.7866795585       -7.8615265918  MEMB      292             0.0000000000
     33997       292  POPE      H6R             1.0678951766       48.5942973992       -7.5167065137  MEMB      292             0.0000000000
     33998       292  POPE      H6S             0.2932063021       47.0729312309       -7.0153439280  MEMB      292             0.0000000000
     33999       292  POPE      C27            -1.0858475604       48.3019625206       -7.9023274231  MEMB      292             0.0000000000
     34000       292  POPE      H7R            -1.7543657955       47.4808156472       -8.2386639173  MEMB      292             0.0000000000
     34001       292  POPE      H7S            -1.0871684371       49.0653884584       -8.7094829500  MEMB      292             0.0000000000
     34002       292  POPE      C28            -1.5296412127       49.0565089664       -6.6154551836  MEMB      292             0.0000000000
     34003       292  POPE      H8R            -2.5149287142       49.5352312522       -6.8008054679  MEMB      292             0.0000000000
     34004       292  POPE      H8S            -0.9030830814       49.9588020647       -6.4492834398  MEMB      292             0.0000000000
     34005       292  POPE      C29            -1.5845804092       48.1664692440       -5.4092741802  MEMB      292             0.0000000000
     34006       292  POPE      H91            -0.5961858003       48.0084785581       -4.9530781387  MEMB      292             0.0000000000
     34007       292  POPE      C210           -2.7008281903       47.7192851915       -4.8098543559  MEMB      292             0.0000000000
     34008       292  POPE      H101           -2.7931534200       46.9919111573       -3.9898522896  MEMB      292             0.0000000000
     34009       292  POPE      C211           -4.0556066358       47.9860184224       -5.3154335767  MEMB      292             0.0000000000
     34010       292  POPE      H11R           -4.6572929768       47.1002797866       -5.6116795502  MEMB      292             0.0000000000
     34011       292  POPE      H11S           -4.0337046449       48.3852757611       -6.3519824506  MEMB      292             0.0000000000
     34012       292  POPE      C212           -5.0562628375       48.8356993465       -4.5071050467  MEMB      292             0.0000000000
     34013       292  POPE      H12R           -5.0841171915       48.5644373180       -3.4300903985  MEMB      292             0.0000000000
     34014       292  POPE      H12S           -6.1280752673       48.7391780390       -4.7831897951  MEMB      292             0.0000000000
     34015       292  POPE      C213           -4.7797131608       50.3851580141       -4.6901394486  MEMB      292             0.0000000000
     34016       292  POPE      H13R           -5.0007706195       50.7328962468       -5.7219019995  MEMB      292             0.0000000000
     34017       292  POPE      H13S           -3.6756853709       50.4272375604       -4.5732070289  MEMB      292             0.0000000000
     34018       292  POPE      C214           -5.6391017408       51.1124144036       -3.6793609895  MEMB      292             0.0000000000
     34019       292  POPE      H14R           -5.3717669236       50.8227423115       -2.6406388165  MEMB      292             0.0000000000
     34020       292  POPE      H14S           -6.6766741929       50.7647514997       -3.8714418919  MEMB      292             0.0000000000
     34021       292  POPE      C215           -5.5402187278       52.6209321056       -3.6442821660  MEMB      292             0.0000000000
     34022       292  POPE      H15R           -6.0578244287       52.9205859045       -4.5805585104  MEMB      292             0.0000000000
     34023       292  POPE      H15S           -4.4378097993       52.7587981106       -3.6471412158  MEMB      292             0.0000000000
     34024       292  POPE      C216           -6.0195664671       53.2627512524       -2.3645371777  MEMB      292             0.0000000000
     34025       292  POPE      H16R           -5.8490954953       54.3601460078       -2.3959335638  MEMB      292             0.0000000000
     34026       292  POPE      H16S           -5.4324853991       52.8938614384       -1.4964490026  MEMB      292             0.0000000000
     34027       292  POPE      C217           -7.5607248560       52.9961738645       -2.1045698855  MEMB      292             0.0000000000
     34028       292  POPE      H17R           -7.7878713613       53.0986922353       -1.0218808834  MEMB      292             0.0000000000
     34029       292  POPE      H17S           -7.7618318293       51.9155235544       -2.2660373651  MEMB      292             0.0000000000
     34030       292  POPE      C218           -8.6127368366       53.8002739093       -2.9674260563  MEMB      292             0.0000000000
     34031       292  POPE      H18R           -8.3806284502       54.8838128757       -3.0473615187  MEMB      292             0.0000000000
     34032       292  POPE      H18S           -9.6418159671       53.8113062339       -2.5488609246  MEMB      292             0.0000000000
     34033       292  POPE      H18T           -8.6851746845       53.4205501351       -4.0090027862  MEMB      292             0.0000000000
     34034       292  POPE      C33            -3.7347554105       51.4920774115       -9.5574543463  MEMB      292             0.0000000000
     34035       292  POPE      H3X            -3.9582570040       50.5524536648       -9.0083867102  MEMB      292             0.0000000000
     34036       292  POPE      H3Y            -4.5503222776       51.7250343698      -10.2750212048  MEMB      292             0.0000000000
     34037       292  POPE      C34            -3.7266256914       52.5630232522       -8.4215971313  MEMB      292             0.0000000000
     34038       292  POPE      H4X            -4.6888264379       52.6306859739       -7.8703147615  MEMB      292             0.0000000000
     34039       292  POPE      H4Y            -3.5576783131       53.5493501519       -8.9042326118  MEMB      292             0.0000000000
     34040       292  POPE      C35            -2.6355971120       52.3809599725       -7.3512247941  MEMB      292             0.0000000000
     34041       292  POPE      H5X            -1.5993014763       52.1615588453       -7.6863004278  MEMB      292             0.0000000000
     34042       292  POPE      H5Y            -2.9588184187       51.5625596302       -6.6729410494  MEMB      292             0.0000000000
     34043       292  POPE      C36            -2.3215751447       53.6738000266       -6.5989617371  MEMB      292             0.0000000000
     34044       292  POPE      H6X            -3.1933339927       54.1164696336       -6.0713246234  MEMB      292             0.0000000000
     34045       292  POPE      H6Y            -1.9775307654       54.3431524870       -7.4162270079  MEMB      292             0.0000000000
     34046       292  POPE      C37            -1.0856533639       53.4251147372       -5.7031927921  MEMB      292             0.0000000000
     34047       292  POPE      H7X            -0.5953424466       54.4162742978       -5.5958648413  MEMB      292             0.0000000000
     34048       292  POPE      H7Y            -0.3159367222       52.7732956540       -6.1690136923  MEMB      292             0.0000000000
     34049       292  POPE      C38            -1.5524541223       52.7744345383       -4.4083835829  MEMB      292             0.0000000000
     34050       292  POPE      H8X            -2.0933729578       51.8206533798       -4.5873517754  MEMB      292             0.0000000000
     34051       292  POPE      H8Y            -2.3154557544       53.3808041916       -3.8750308936  MEMB      292             0.0000000000
     34052       292  POPE      C39            -0.4318088791       52.6228802624       -3.3591938704  MEMB      292             0.0000000000
     34053       292  POPE      H9X            -0.1839549079       53.6614786574       -3.0522699043  MEMB      292             0.0000000000
     34054       292  POPE      H9Y             0.5290768643       52.1704527122       -3.6852755025  MEMB      292             0.0000000000
     34055       292  POPE      C310           -0.9691078848       51.8331267966       -2.1889066276  MEMB      292             0.0000000000
     34056       292  POPE      H10X           -2.0614860080       51.9868326447       -2.0569735279  MEMB      292             0.0000000000
     34057       292  POPE      H10Y           -0.5380312920       52.3332155537       -1.2953703503  MEMB      292             0.0000000000
     34058       292  POPE      C311           -0.5659328371       50.3387988975       -2.1705141789  MEMB      292             0.0000000000
     34059       292  POPE      H11X            0.5370874675       50.2299140919       -2.0942856683  MEMB      292             0.0000000000
     34060       292  POPE      H11Y           -0.6759998149       49.7651195054       -3.1155528376  MEMB      292             0.0000000000
     34061       292  POPE      C312           -1.4499843011       49.7112570303       -1.1475904722  MEMB      292             0.0000000000
     34062       292  POPE      H12X           -2.4369779459       49.4158531953       -1.5634043569  MEMB      292             0.0000000000
     34063       292  POPE      H12Y           -1.6978573670       50.4252595693       -0.3332944329  MEMB      292             0.0000000000
     34064       292  POPE      C313           -0.8065805009       48.4380580305       -0.4863025688  MEMB      292             0.0000000000
     34065       292  POPE      H13X            0.1553003124       48.7860731686       -0.0527222356  MEMB      292             0.0000000000
     34066       292  POPE      H13Y           -0.7333433233       47.5724895100       -1.1789404669  MEMB      292             0.0000000000
     34067       292  POPE      C314           -1.7189147496       47.8943698082        0.6500224501  MEMB      292             0.0000000000
     34068       292  POPE      H14X           -1.7764732282       48.8508260271        1.2123397388  MEMB      292             0.0000000000
     34069       292  POPE      H14Y           -1.1995262897       47.0694349403        1.1829761974  MEMB      292             0.0000000000
     34070       292  POPE      C315           -3.1534278633       47.3953072053        0.2394298390  MEMB      292             0.0000000000
     34071       292  POPE      H15X           -3.1001522790       46.3742611177       -0.1952502426  MEMB      292             0.0000000000
     34072       292  POPE      H15Y           -3.6229250527       48.2420470890       -0.3054788272  MEMB      292             0.0000000000
     34073       292  POPE      C316           -4.1232472732       47.1848381194        1.4757061813  MEMB      292             0.0000000000
     34074       292  POPE      H16X           -3.6378435937       46.6736184128        2.3344007266  MEMB      292             0.0000000000
     34075       292  POPE      H16Y           -5.0451926160       46.6606599685        1.1446845970  MEMB      292             0.0000000000
     34076       292  POPE      H16Z           -4.5855066694       48.1418038585        1.7995157914  MEMB      292             0.0000000000
     34077       293  POPE      N             -23.3253982089      -36.0178798206      -19.6519506423  MEMB      293             0.0000000000
     34078       293  POPE      HN1           -23.8167906809      -36.7395390827      -20.2170534843  MEMB      293             0.0000000000
     34079       293  POPE      HN2           -23.5772201541      -36.2331752835      -18.6661344834  MEMB      293             0.0000000000
     34080       293  POPE      HN3           -23.7662338256      -35.1238114210      -19.9484393646  MEMB      293             0.0000000000
     34081       293  POPE      C12           -21.8039673736      -36.0035734158      -19.9403054935  MEMB      293             0.0000000000
     34082       293  POPE      H12A          -21.4009134693      -35.0478930000      -19.5421303557  MEMB      293             0.0000000000
     34083       293  POPE      H12B          -21.6756395776      -36.1162473647      -21.0381021028  MEMB      293             0.0000000000
     34084       293  POPE      C11           -21.0659928542      -37.2295043970      -19.2647775365  MEMB      293             0.0000000000
     34085       293  POPE      H11A          -21.1097079829      -37.0101535891      -18.1765242571  MEMB      293             0.0000000000
     34086       293  POPE      H11B          -20.0000056227      -37.1650816620      -19.5711138445  MEMB      293             0.0000000000
     34087       293  POPE      P             -21.0154140020      -39.7163624748      -18.6493359062  MEMB      293             0.0000000000
     34088       293  POPE      O13           -19.8012640442      -39.3215580652      -17.9263377329  MEMB      293             0.0000000000
     34089       293  POPE      O14           -20.9512178292      -40.9480166658      -19.5357159008  MEMB      293             0.0000000000
     34090       293  POPE      O11           -22.1478919569      -40.0289754031      -17.4896075096  MEMB      293             0.0000000000
     34091       293  POPE      O12           -21.5881105066      -38.5221081564      -19.5419692565  MEMB      293             0.0000000000
     34092       293  POPE      C1            -22.4291005070      -38.8550197325      -16.6922726327  MEMB      293             0.0000000000
     34093       293  POPE      HA            -23.1047349809      -38.1750871662      -17.2539938168  MEMB      293             0.0000000000
     34094       293  POPE      HB            -21.5266216910      -38.2777809304      -16.3979116768  MEMB      293             0.0000000000
     34095       293  POPE      C2            -23.2433552956      -39.2690586812      -15.4052743253  MEMB      293             0.0000000000
     34096       293  POPE      HS            -23.2190211931      -38.4890117665      -14.6145429618  MEMB      293             0.0000000000
     34097       293  POPE      O21           -22.9141571132      -40.5036223307      -14.8023868259  MEMB      293             0.0000000000
     34098       293  POPE      C21           -21.6948893106      -40.6166032867      -14.3457638069  MEMB      293             0.0000000000
     34099       293  POPE      O22           -20.8045749075      -39.7946955851      -14.3573938624  MEMB      293             0.0000000000
     34100       293  POPE      C22           -21.5132322183      -42.1465129162      -13.9157543637  MEMB      293             0.0000000000
     34101       293  POPE      H2R           -20.4302680679      -42.3518424199      -14.0548561201  MEMB      293             0.0000000000
     34102       293  POPE      H2S           -22.0739776077      -42.8369350565      -14.5814893458  MEMB      293             0.0000000000
     34103       293  POPE      C3            -24.7255169960      -39.3167770992      -15.7302452317  MEMB      293             0.0000000000
     34104       293  POPE      HX            -25.0585464806      -39.9185097722      -16.6027876174  MEMB      293             0.0000000000
     34105       293  POPE      HY            -25.1260369013      -38.3003009320      -15.9319403485  MEMB      293             0.0000000000
     34106       293  POPE      O31           -25.4327936686      -39.8325853730      -14.6211655679  MEMB      293             0.0000000000
     34107       293  POPE      C31           -26.7359107377      -39.5754225890      -14.5163281769  MEMB      293             0.0000000000
     34108       293  POPE      O32           -27.4048928945      -39.0604186523      -15.4207300068  MEMB      293             0.0000000000
     34109       293  POPE      C32           -27.4100655338      -40.0767324305      -13.2644939612  MEMB      293             0.0000000000
     34110       293  POPE      H2X           -27.4732808314      -41.1794205508      -13.1444800938  MEMB      293             0.0000000000
     34111       293  POPE      H2Y           -28.3954989822      -39.5669661283      -13.2063562704  MEMB      293             0.0000000000
     34112       293  POPE      C23           -21.9421454091      -42.4224870833      -12.5560210941  MEMB      293             0.0000000000
     34113       293  POPE      H3R           -21.5472588436      -41.6417140092      -11.8713466902  MEMB      293             0.0000000000
     34114       293  POPE      H3S           -21.6119658372      -43.4434495080      -12.2680313408  MEMB      293             0.0000000000
     34115       293  POPE      C24           -23.4619447171      -42.4689959518      -12.3129253823  MEMB      293             0.0000000000
     34116       293  POPE      H4R           -23.8551132860      -43.4210667664      -12.7292197560  MEMB      293             0.0000000000
     34117       293  POPE      H4S           -24.0284230086      -41.7137767489      -12.8986448386  MEMB      293             0.0000000000
     34118       293  POPE      C25           -23.9065966389      -42.3270429043      -10.9328716331  MEMB      293             0.0000000000
     34119       293  POPE      H5R           -25.0041613633      -42.1972721111      -11.0461500860  MEMB      293             0.0000000000
     34120       293  POPE      H5S           -23.5894313018      -41.4387709785      -10.3457595449  MEMB      293             0.0000000000
     34121       293  POPE      C26           -23.7232345045      -43.6308254802      -10.1162988728  MEMB      293             0.0000000000
     34122       293  POPE      H6R           -22.7210148708      -44.1035940643      -10.1960900889  MEMB      293             0.0000000000
     34123       293  POPE      H6S           -24.2919168940      -44.4383560597      -10.6250381752  MEMB      293             0.0000000000
     34124       293  POPE      C27           -24.0888459126      -43.4962373605       -8.6135263162  MEMB      293             0.0000000000
     34125       293  POPE      H7R           -24.0939142081      -44.5370149421       -8.2248391072  MEMB      293             0.0000000000
     34126       293  POPE      H7S           -25.1479722398      -43.1659844075       -8.6727342970  MEMB      293             0.0000000000
     34127       293  POPE      C28           -23.2687960224      -42.6223148185       -7.6850421242  MEMB      293             0.0000000000
     34128       293  POPE      H8R           -23.9718880751      -42.2987750221       -6.8879830951  MEMB      293             0.0000000000
     34129       293  POPE      H8S           -22.9298634647      -41.7851999181       -8.3321006391  MEMB      293             0.0000000000
     34130       293  POPE      C29           -22.0324807302      -43.3425605268       -7.2485082726  MEMB      293             0.0000000000
     34131       293  POPE      H91           -21.6095273751      -43.7728355314       -8.1682774166  MEMB      293             0.0000000000
     34132       293  POPE      C210          -21.4596738654      -43.5397005252       -6.0205065314  MEMB      293             0.0000000000
     34133       293  POPE      H101          -20.4531862829      -43.9417860405       -5.8325975903  MEMB      293             0.0000000000
     34134       293  POPE      C211          -21.9676001310      -43.0724659323       -4.7191146336  MEMB      293             0.0000000000
     34135       293  POPE      H11R          -22.3879543513      -42.0502514877       -4.8318132472  MEMB      293             0.0000000000
     34136       293  POPE      H11S          -21.0624347838      -43.0081474346       -4.0781311910  MEMB      293             0.0000000000
     34137       293  POPE      C212          -23.1544542474      -43.8986222916       -4.0733685169  MEMB      293             0.0000000000
     34138       293  POPE      H12R          -22.7489534605      -44.8644502326       -3.7031447004  MEMB      293             0.0000000000
     34139       293  POPE      H12S          -23.9245099100      -44.2179845836       -4.8077687065  MEMB      293             0.0000000000
     34140       293  POPE      C213          -23.7801315777      -43.2046612326       -2.8432006782  MEMB      293             0.0000000000
     34141       293  POPE      H13R          -24.0743608896      -42.2203930865       -3.2662443935  MEMB      293             0.0000000000
     34142       293  POPE      H13S          -23.0141009280      -43.0618261196       -2.0512943990  MEMB      293             0.0000000000
     34143       293  POPE      C214          -25.0477295199      -43.8562230546       -2.1914273197  MEMB      293             0.0000000000
     34144       293  POPE      H14R          -24.6690257258      -44.8371818077       -1.8327830394  MEMB      293             0.0000000000
     34145       293  POPE      H14S          -25.8174102646      -44.0323001928       -2.9730342740  MEMB      293             0.0000000000
     34146       293  POPE      C215          -25.7806937504      -43.0839884223       -1.1175700434  MEMB      293             0.0000000000
     34147       293  POPE      H15R          -25.9654150083      -42.1004189252       -1.6000532284  MEMB      293             0.0000000000
     34148       293  POPE      H15S          -25.0551488829      -42.9008045991       -0.2963819214  MEMB      293             0.0000000000
     34149       293  POPE      C216          -26.9618033368      -43.7130540543       -0.4690788101  MEMB      293             0.0000000000
     34150       293  POPE      H16R          -26.6315697586      -44.5513621704        0.1809257501  MEMB      293             0.0000000000
     34151       293  POPE      H16S          -27.6575899157      -44.0851667902       -1.2512131019  MEMB      293             0.0000000000
     34152       293  POPE      C217          -27.6604068367      -42.6880205097        0.4315325940  MEMB      293             0.0000000000
     34153       293  POPE      H17R          -28.0783291414      -41.8125451136       -0.1099497764  MEMB      293             0.0000000000
     34154       293  POPE      H17S          -26.9864933738      -42.2133476870        1.1764136362  MEMB      293             0.0000000000
     34155       293  POPE      C218          -28.8634163328      -43.3005196875        1.1857129157  MEMB      293             0.0000000000
     34156       293  POPE      H18R          -28.7403654828      -44.0096954567        2.0320276573  MEMB      293             0.0000000000
     34157       293  POPE      H18S          -29.5384296234      -43.8006523970        0.4587005641  MEMB      293             0.0000000000
     34158       293  POPE      H18T          -29.4309924330      -42.4677598289        1.6533553497  MEMB      293             0.0000000000
     34159       293  POPE      C33           -26.6255035801      -39.8233510655      -11.9876192497  MEMB      293             0.0000000000
     34160       293  POPE      H3X           -26.3620505819      -38.7468654444      -11.9095673677  MEMB      293             0.0000000000
     34161       293  POPE      H3Y           -25.6722505037      -40.3939344454      -11.9796113145  MEMB      293             0.0000000000
     34162       293  POPE      C34           -27.4375055728      -39.9614350348      -10.7151239207  MEMB      293             0.0000000000
     34163       293  POPE      H4X           -27.6150748791      -41.0524300969      -10.6032316389  MEMB      293             0.0000000000
     34164       293  POPE      H4Y           -28.4774752528      -39.6287957566      -10.9203919492  MEMB      293             0.0000000000
     34165       293  POPE      C35           -26.7312065303      -39.4965245562       -9.4349382181  MEMB      293             0.0000000000
     34166       293  POPE      H5X           -26.5144803516      -38.4112870201       -9.5329700436  MEMB      293             0.0000000000
     34167       293  POPE      H5Y           -25.7974248231      -40.0822807947       -9.2961492785  MEMB      293             0.0000000000
     34168       293  POPE      C36           -27.3644347145      -39.8056090589       -8.0668594635  MEMB      293             0.0000000000
     34169       293  POPE      H6X           -28.4621619422      -39.7075520327       -8.2072205755  MEMB      293             0.0000000000
     34170       293  POPE      H6Y           -27.0010335963      -38.9701512175       -7.4310372515  MEMB      293             0.0000000000
     34171       293  POPE      C37           -26.9158961388      -41.1034081781       -7.4351601145  MEMB      293             0.0000000000
     34172       293  POPE      H7X           -25.8105423244      -41.1842123993       -7.3577994375  MEMB      293             0.0000000000
     34173       293  POPE      H7Y           -27.4048888108      -41.8859864498       -8.0538509598  MEMB      293             0.0000000000
     34174       293  POPE      C38           -27.3540569709      -41.3377704581       -6.0066449020  MEMB      293             0.0000000000
     34175       293  POPE      H8X           -26.8251675162      -42.2074805988       -5.5614468005  MEMB      293             0.0000000000
     34176       293  POPE      H8Y           -28.4541145071      -41.4906115923       -5.9777501392  MEMB      293             0.0000000000
     34177       293  POPE      C39           -27.1809463697      -40.1596436082       -4.9623514182  MEMB      293             0.0000000000
     34178       293  POPE      H9X           -27.5605222322      -40.4940294299       -3.9731956742  MEMB      293             0.0000000000
     34179       293  POPE      H9Y           -27.8007727391      -39.2671881693       -5.1939970392  MEMB      293             0.0000000000
     34180       293  POPE      C310          -25.7041102227      -39.6489030093       -4.7456789320  MEMB      293             0.0000000000
     34181       293  POPE      H10X          -25.4346773216      -39.0116963203       -5.6149862803  MEMB      293             0.0000000000
     34182       293  POPE      H10Y          -25.1764064851      -40.6050691761       -4.5417287990  MEMB      293             0.0000000000
     34183       293  POPE      C311          -25.5603187647      -38.7424515315       -3.4750729021  MEMB      293             0.0000000000
     34184       293  POPE      H11X          -25.9755292846      -39.2622690453       -2.5852901743  MEMB      293             0.0000000000
     34185       293  POPE      H11Y          -26.3007773647      -37.9658384201       -3.7630201886  MEMB      293             0.0000000000
     34186       293  POPE      C312          -24.1644867726      -38.2499726416       -3.1808340399  MEMB      293             0.0000000000
     34187       293  POPE      H12X          -24.1357873590      -37.4215106728       -2.4411392237  MEMB      293             0.0000000000
     34188       293  POPE      H12Y          -23.9242561303      -37.6648864269       -4.0942250855  MEMB      293             0.0000000000
     34189       293  POPE      C313          -23.2029082183      -39.3733057746       -2.7650977437  MEMB      293             0.0000000000
     34190       293  POPE      H13X          -22.5866075968      -39.7261271989       -3.6195043353  MEMB      293             0.0000000000
     34191       293  POPE      H13Y          -23.8312101739      -40.2377860431       -2.4614006209  MEMB      293             0.0000000000
     34192       293  POPE      C314          -22.3283557568      -38.9700739111       -1.5325592767  MEMB      293             0.0000000000
     34193       293  POPE      H14X          -22.9866990928      -38.6421894344       -0.6998553330  MEMB      293             0.0000000000
     34194       293  POPE      H14Y          -21.5538962477      -38.1904578894       -1.6960585341  MEMB      293             0.0000000000
     34195       293  POPE      C315          -21.6264601597      -40.3068495697       -1.0201374352  MEMB      293             0.0000000000
     34196       293  POPE      H15X          -22.3351190991      -41.1581866819       -0.9344163226  MEMB      293             0.0000000000
     34197       293  POPE      H15Y          -21.1703141591      -40.0624556323       -0.0370187335  MEMB      293             0.0000000000
     34198       293  POPE      C316          -20.4833449167      -40.7779887285       -1.8867883797  MEMB      293             0.0000000000
     34199       293  POPE      H16X          -20.8845099650      -41.1906705401       -2.8370939236  MEMB      293             0.0000000000
     34200       293  POPE      H16Y          -19.8263534347      -41.5390240127       -1.4140202579  MEMB      293             0.0000000000
     34201       293  POPE      H16Z          -19.7870711593      -39.9985332218       -2.2635799291  MEMB      293             0.0000000000
     34202       294  POPC      N              10.8733309543      -48.4067729198      -19.9057274944  MEMB      294             0.0000000000
     34203       294  POPC      C12            11.4265837698      -46.9737995526      -20.0766238959  MEMB      294             0.0000000000
     34204       294  POPC      H12A           11.0281408121      -46.3590293742      -19.2830869687  MEMB      294             0.0000000000
     34205       294  POPC      H12B           11.0422987734      -46.5600315136      -20.9972328728  MEMB      294             0.0000000000
     34206       294  POPC      C13            11.3258801050      -49.3475895024      -21.0063196062  MEMB      294             0.0000000000
     34207       294  POPC      H13A           11.0889589595      -50.3825359168      -20.8084451652  MEMB      294             0.0000000000
     34208       294  POPC      H13B           10.8586622369      -48.9198643702      -21.8810531867  MEMB      294             0.0000000000
     34209       294  POPC      H13C           12.3883955175      -49.1980878484      -21.1292433266  MEMB      294             0.0000000000
     34210       294  POPC      C14            11.3485964070      -48.8831645325      -18.5927286803  MEMB      294             0.0000000000
     34211       294  POPC      H14A           12.4186758704      -48.8803007239      -18.7387475607  MEMB      294             0.0000000000
     34212       294  POPC      H14B           11.0620347498      -48.1829084786      -17.8220640861  MEMB      294             0.0000000000
     34213       294  POPC      H14C           10.9712444828      -49.8644983781      -18.3457687506  MEMB      294             0.0000000000
     34214       294  POPC      C15             9.3358391352      -48.3883758462      -19.8404208620  MEMB      294             0.0000000000
     34215       294  POPC      H15A            8.9481130979      -48.4830418819      -20.8439679133  MEMB      294             0.0000000000
     34216       294  POPC      H15B            9.0205065137      -47.4033997964      -19.5293139764  MEMB      294             0.0000000000
     34217       294  POPC      H15C            8.9139720727      -49.0567824117      -19.1044448134  MEMB      294             0.0000000000
     34218       294  POPC      C11            13.0066081374      -46.7753935155      -20.0326135156  MEMB      294             0.0000000000
     34219       294  POPC      H11A           12.9964304536      -45.7055248225      -20.3319433849  MEMB      294             0.0000000000
     34220       294  POPC      H11B           13.4443348193      -47.3341616786      -20.8873033472  MEMB      294             0.0000000000
     34221       294  POPC      P              14.1463714731      -45.9618598670      -17.8849179585  MEMB      294             0.0000000000
     34222       294  POPC      O13            14.8395998161      -44.9730519611      -18.7832195621  MEMB      294             0.0000000000
     34223       294  POPC      O14            14.8557827624      -46.5627807164      -16.7141027041  MEMB      294             0.0000000000
     34224       294  POPC      O12            13.5509154901      -47.0654061808      -18.8153407422  MEMB      294             0.0000000000
     34225       294  POPC      O11            12.8524263266      -45.2973524533      -17.3479849782  MEMB      294             0.0000000000
     34226       294  POPC      C1             11.8545961273      -45.9007278435      -16.5138383973  MEMB      294             0.0000000000
     34227       294  POPC      HA             11.9854298635      -46.9970427801      -16.3901566965  MEMB      294             0.0000000000
     34228       294  POPC      HB             10.9078164815      -45.8446383200      -17.0924429809  MEMB      294             0.0000000000
     34229       294  POPC      C2             11.6018542113      -45.1757692297      -15.1982538178  MEMB      294             0.0000000000
     34230       294  POPC      HS             11.2723557412      -44.1369898403      -15.4143303165  MEMB      294             0.0000000000
     34231       294  POPC      O21            12.7284923072      -45.2660059252      -14.4155045750  MEMB      294             0.0000000000
     34232       294  POPC      C21            13.4615648180      -44.1783102045      -14.1887201914  MEMB      294             0.0000000000
     34233       294  POPC      O22            13.2351459247      -43.0494695644      -14.5694577678  MEMB      294             0.0000000000
     34234       294  POPC      C22            14.6736210827      -44.6884663841      -13.4913202616  MEMB      294             0.0000000000
     34235       294  POPC      H2R            15.3450384049      -45.1518599888      -14.2454995859  MEMB      294             0.0000000000
     34236       294  POPC      H2S            14.3124169941      -45.4585307203      -12.7765804721  MEMB      294             0.0000000000
     34237       294  POPC      C3             10.4755328536      -45.8668191187      -14.4413498494  MEMB      294             0.0000000000
     34238       294  POPC      HX              9.5509122696      -45.8356162828      -15.0565118909  MEMB      294             0.0000000000
     34239       294  POPC      HY             10.2585981909      -45.2155208385      -13.5678108579  MEMB      294             0.0000000000
     34240       294  POPC      O31            10.9173280520      -47.1950928277      -13.9058216932  MEMB      294             0.0000000000
     34241       294  POPC      C31             9.9715917105      -48.0283462241      -13.8092038439  MEMB      294             0.0000000000
     34242       294  POPC      O32             8.8712522590      -47.8955424824      -14.3570187239  MEMB      294             0.0000000000
     34243       294  POPC      C32            10.5258033619      -49.1711811032      -12.9634350190  MEMB      294             0.0000000000
     34244       294  POPC      H2X            11.4061503503      -49.5877163459      -13.4980457324  MEMB      294             0.0000000000
     34245       294  POPC      H2Y             9.7505416950      -49.9575549674      -12.8413438820  MEMB      294             0.0000000000
     34246       294  POPC      C23            15.5748867433      -43.5611697743      -12.8311629467  MEMB      294             0.0000000000
     34247       294  POPC      H3R            14.9440704548      -42.9748440525      -12.1292987220  MEMB      294             0.0000000000
     34248       294  POPC      H3S            15.8968062727      -42.8636210271      -13.6337304574  MEMB      294             0.0000000000
     34249       294  POPC      C24            16.8206960246      -44.0848128847      -12.0687891816  MEMB      294             0.0000000000
     34250       294  POPC      H4R            17.3201986703      -43.1326375706      -11.7891811507  MEMB      294             0.0000000000
     34251       294  POPC      H4S            17.5555892949      -44.6051909808      -12.7195272741  MEMB      294             0.0000000000
     34252       294  POPC      C25            16.6668381445      -45.1569474605      -10.9645032032  MEMB      294             0.0000000000
     34253       294  POPC      H5R            17.6820402420      -45.3850624336      -10.5750806512  MEMB      294             0.0000000000
     34254       294  POPC      H5S            16.2678966486      -46.1261644693      -11.3329927011  MEMB      294             0.0000000000
     34255       294  POPC      C26            15.8773985139      -44.6714155249       -9.7325255025  MEMB      294             0.0000000000
     34256       294  POPC      H6R            15.9716736780      -43.5646644798       -9.7093851675  MEMB      294             0.0000000000
     34257       294  POPC      H6S            16.4723545711      -45.1136642112       -8.9050203313  MEMB      294             0.0000000000
     34258       294  POPC      C27            14.3111265946      -45.0621786466       -9.7173103570  MEMB      294             0.0000000000
     34259       294  POPC      H7R            14.1936783197      -46.1408741055       -9.4786832174  MEMB      294             0.0000000000
     34260       294  POPC      H7S            13.8136275966      -45.0125773739      -10.7094576967  MEMB      294             0.0000000000
     34261       294  POPC      C28            13.4946383422      -44.1060868931       -8.6955914372  MEMB      294             0.0000000000
     34262       294  POPC      H8R            12.4798690907      -44.2318285157       -9.1300494005  MEMB      294             0.0000000000
     34263       294  POPC      H8S            13.8908210802      -43.0699404330       -8.6342677635  MEMB      294             0.0000000000
     34264       294  POPC      C29            13.5480900860      -44.6782099446       -7.3160831704  MEMB      294             0.0000000000
     34265       294  POPC      H91            13.7053278530      -45.7650095378       -7.2517177026  MEMB      294             0.0000000000
     34266       294  POPC      C210           13.4554149625      -44.1115379868       -6.1214941892  MEMB      294             0.0000000000
     34267       294  POPC      H101           13.6390289832      -44.7721972176       -5.2613692904  MEMB      294             0.0000000000
     34268       294  POPC      C211           13.3075357168      -42.6244061404       -5.8521269347  MEMB      294             0.0000000000
     34269       294  POPC      H11R           12.9937093739      -42.2220943495       -6.8390306013  MEMB      294             0.0000000000
     34270       294  POPC      H11S           14.2970353134      -42.1991262985       -5.5794573559  MEMB      294             0.0000000000
     34271       294  POPC      C212           12.1539552178      -42.1331067126       -4.9162245900  MEMB      294             0.0000000000
     34272       294  POPC      H12R           11.2561353341      -42.5874301297       -5.3872130716  MEMB      294             0.0000000000
     34273       294  POPC      H12S           12.1530661154      -41.0302138673       -5.0501921432  MEMB      294             0.0000000000
     34274       294  POPC      C213           12.2801513449      -42.3758366492       -3.4252931057  MEMB      294             0.0000000000
     34275       294  POPC      H13R           12.0243283276      -43.4132829616       -3.1210222681  MEMB      294             0.0000000000
     34276       294  POPC      H13S           11.6201829436      -41.6063397877       -2.9707204607  MEMB      294             0.0000000000
     34277       294  POPC      C214           13.6497644720      -42.1772663852       -2.7361360325  MEMB      294             0.0000000000
     34278       294  POPC      H14R           13.8544803124      -41.1086809099       -2.9609414142  MEMB      294             0.0000000000
     34279       294  POPC      H14S           14.4614060906      -42.7774517841       -3.2001790217  MEMB      294             0.0000000000
     34280       294  POPC      C215           13.6205872167      -42.2721314847       -1.1647234647  MEMB      294             0.0000000000
     34281       294  POPC      H15R           13.3302393382      -43.2890852090       -0.8243941020  MEMB      294             0.0000000000
     34282       294  POPC      H15S           12.8717150984      -41.4902591009       -0.9153489654  MEMB      294             0.0000000000
     34283       294  POPC      C216           14.8566004078      -41.8622660281       -0.3211491218  MEMB      294             0.0000000000
     34284       294  POPC      H16R           14.5574833119      -41.6724649414        0.7318578040  MEMB      294             0.0000000000
     34285       294  POPC      H16S           15.1419068281      -40.9345149978       -0.8617042767  MEMB      294             0.0000000000
     34286       294  POPC      C217           16.0188988961      -42.8135148653       -0.3726777293  MEMB      294             0.0000000000
     34287       294  POPC      H17R           16.4734739715      -42.7432719129       -1.3839874746  MEMB      294             0.0000000000
     34288       294  POPC      H17S           15.7997712225      -43.8958941451       -0.2511907557  MEMB      294             0.0000000000
     34289       294  POPC      C218           17.1669070068      -42.4732678326        0.5318724621  MEMB      294             0.0000000000
     34290       294  POPC      H18R           18.0226999509      -43.1608785835        0.3611956096  MEMB      294             0.0000000000
     34291       294  POPC      H18S           16.8645948968      -42.7241425576        1.5710983618  MEMB      294             0.0000000000
     34292       294  POPC      H18T           17.5220538250      -41.4220856082        0.4752382119  MEMB      294             0.0000000000
     34293       294  POPC      C33            11.0213120382      -48.7265939607      -11.6046376524  MEMB      294             0.0000000000
     34294       294  POPC      H3X            11.6676924049      -47.8502748997      -11.8250422326  MEMB      294             0.0000000000
     34295       294  POPC      H3Y            11.5427198061      -49.5470009026      -11.0666901065  MEMB      294             0.0000000000
     34296       294  POPC      C34             9.7984270669      -48.1562667170      -10.7690704246  MEMB      294             0.0000000000
     34297       294  POPC      H4X             9.3396017722      -48.9838926894      -10.1869746682  MEMB      294             0.0000000000
     34298       294  POPC      H4Y             9.0572262043      -47.6793572028      -11.4454574213  MEMB      294             0.0000000000
     34299       294  POPC      C35            10.2580503381      -47.1489579838       -9.7320220993  MEMB      294             0.0000000000
     34300       294  POPC      H5X            11.0717105675      -46.6269331777      -10.2795328584  MEMB      294             0.0000000000
     34301       294  POPC      H5Y            10.8937279649      -47.5639728859       -8.9208515127  MEMB      294             0.0000000000
     34302       294  POPC      C36             9.1421532424      -46.3321000708       -9.0618155153  MEMB      294             0.0000000000
     34303       294  POPC      H6X             8.5965970306      -45.8529169848       -9.9026916411  MEMB      294             0.0000000000
     34304       294  POPC      H6Y             9.4879928785      -45.5330688252       -8.3716959767  MEMB      294             0.0000000000
     34305       294  POPC      C37             8.1975952770      -47.2316639177       -8.2238776440  MEMB      294             0.0000000000
     34306       294  POPC      H7X             7.6374562848      -47.8093790776       -8.9899138614  MEMB      294             0.0000000000
     34307       294  POPC      H7Y             7.4387887491      -46.6123123295       -7.6995329720  MEMB      294             0.0000000000
     34308       294  POPC      C38             8.8096927174      -48.2424833141       -7.2108203202  MEMB      294             0.0000000000
     34309       294  POPC      H8X             9.4485322643      -48.9973292366       -7.7171922537  MEMB      294             0.0000000000
     34310       294  POPC      H8Y             7.8866813912      -48.7026275657       -6.7977371211  MEMB      294             0.0000000000
     34311       294  POPC      C39             9.6219970264      -47.5830247794       -6.0381106701  MEMB      294             0.0000000000
     34312       294  POPC      H9X             8.9078806954      -47.3332106079       -5.2245065669  MEMB      294             0.0000000000
     34313       294  POPC      H9Y            10.0365026340      -46.5995229900       -6.3467045141  MEMB      294             0.0000000000
     34314       294  POPC      C310           10.6726442211      -48.5105721749       -5.3697481991  MEMB      294             0.0000000000
     34315       294  POPC      H10X           11.3845702144      -48.9731409539       -6.0863466286  MEMB      294             0.0000000000
     34316       294  POPC      H10Y           10.0682328138      -49.2616620853       -4.8175967515  MEMB      294             0.0000000000
     34317       294  POPC      C311           11.5008889926      -47.7603917103       -4.2956828104  MEMB      294             0.0000000000
     34318       294  POPC      H11X           10.9516372125      -47.7368828442       -3.3302347526  MEMB      294             0.0000000000
     34319       294  POPC      H11Y           11.7340473571      -46.7061068807       -4.5572966056  MEMB      294             0.0000000000
     34320       294  POPC      C312           12.8741468239      -48.4357089729       -4.0241351738  MEMB      294             0.0000000000
     34321       294  POPC      H12X           13.2077979786      -47.8612577461       -3.1336275261  MEMB      294             0.0000000000
     34322       294  POPC      H12Y           13.5388985479      -48.1286189525       -4.8596723048  MEMB      294             0.0000000000
     34323       294  POPC      C313           12.8483787436      -49.9894248331       -3.8248245211  MEMB      294             0.0000000000
     34324       294  POPC      H13X           13.9215778272      -50.2054928879       -3.6354057930  MEMB      294             0.0000000000
     34325       294  POPC      H13Y           12.5180793992      -50.4574404574       -4.7767623870  MEMB      294             0.0000000000
     34326       294  POPC      C314           11.9531881214      -50.4784031349       -2.6137883177  MEMB      294             0.0000000000
     34327       294  POPC      H14X           11.9522584120      -51.5872330877       -2.6831860887  MEMB      294             0.0000000000
     34328       294  POPC      H14Y           10.8900374566      -50.2339624698       -2.8242170924  MEMB      294             0.0000000000
     34329       294  POPC      C315           12.4408699361      -49.9602145239       -1.2535564321  MEMB      294             0.0000000000
     34330       294  POPC      H15X           11.8432975526      -50.4084240848       -0.4311593152  MEMB      294             0.0000000000
     34331       294  POPC      H15Y           12.1560467243      -48.8880387352       -1.3138552094  MEMB      294             0.0000000000
     34332       294  POPC      C316           13.9077720025      -50.1973919400       -0.9625133298  MEMB      294             0.0000000000
     34333       294  POPC      H16X           14.4492593525      -49.5043776316       -1.6413679163  MEMB      294             0.0000000000
     34334       294  POPC      H16Y           14.2125922325      -51.2555588969       -1.1097842572  MEMB      294             0.0000000000
     34335       294  POPC      H16Z           14.1163849190      -50.0371410894        0.1168952672  MEMB      294             0.0000000000
     34336       295  POPE      N              43.0833805231       -9.3743947872      -18.3442283911  MEMB      295             0.0000000000
     34337       295  POPE      HN1            42.6975841051      -10.3087301979      -18.5887244865  MEMB      295             0.0000000000
     34338       295  POPE      HN2            44.0289313532       -9.4321908564      -17.9150508597  MEMB      295             0.0000000000
     34339       295  POPE      HN3            42.5235834019       -8.8599009564      -17.6346347712  MEMB      295             0.0000000000
     34340       295  POPE      C12            43.1724864844       -8.5548235202      -19.5006176373  MEMB      295             0.0000000000
     34341       295  POPE      H12A           42.1424366344       -8.4556944609      -19.9049589186  MEMB      295             0.0000000000
     34342       295  POPE      H12B           43.7025634977       -9.1811725984      -20.2496345728  MEMB      295             0.0000000000
     34343       295  POPE      C11            43.8928726007       -7.2348284685      -19.2375831831  MEMB      295             0.0000000000
     34344       295  POPE      H11A           43.3199435537       -6.4607657231      -18.6835973744  MEMB      295             0.0000000000
     34345       295  POPE      H11B           44.0677106204       -6.6631278810      -20.1740184881  MEMB      295             0.0000000000
     34346       295  POPE      P              46.4745411506       -7.2113611916      -19.0706061828  MEMB      295             0.0000000000
     34347       295  POPE      O13            46.9055375909       -5.8001315265      -19.2645697203  MEMB      295             0.0000000000
     34348       295  POPE      O14            46.6460080515       -8.1350803609      -20.2502842627  MEMB      295             0.0000000000
     34349       295  POPE      O11            47.3835855754       -7.7494639101      -17.8737366231  MEMB      295             0.0000000000
     34350       295  POPE      O12            45.0361312266       -7.4366565878      -18.4583740184  MEMB      295             0.0000000000
     34351       295  POPE      C1             47.2918978993       -9.1292626421      -17.4516083323  MEMB      295             0.0000000000
     34352       295  POPE      HA             48.3307422018       -9.5227750652      -17.4351332978  MEMB      295             0.0000000000
     34353       295  POPE      HB             46.7309648526       -9.7144004969      -18.2114034460  MEMB      295             0.0000000000
     34354       295  POPE      C2             46.6001282420       -9.2276533785      -16.0808235093  MEMB      295             0.0000000000
     34355       295  POPE      HS             45.5433319168       -8.9357405099      -16.2605161665  MEMB      295             0.0000000000
     34356       295  POPE      O21            47.2284653709       -8.4529483646      -15.0157130076  MEMB      295             0.0000000000
     34357       295  POPE      C21            46.7951379376       -7.1994719032      -14.7536277981  MEMB      295             0.0000000000
     34358       295  POPE      O22            46.0162206296       -6.6817923266      -15.4508144415  MEMB      295             0.0000000000
     34359       295  POPE      C22            47.3001096651       -6.6761194894      -13.4398879967  MEMB      295             0.0000000000
     34360       295  POPE      H2R            47.9547710701       -5.7987328385      -13.6294459532  MEMB      295             0.0000000000
     34361       295  POPE      H2S            47.9977438209       -7.3351941479      -12.8802019665  MEMB      295             0.0000000000
     34362       295  POPE      C3             46.5994638332      -10.7025035418      -15.5510702971  MEMB      295             0.0000000000
     34363       295  POPE      HX             47.6751303436      -10.9565475612      -15.6638720977  MEMB      295             0.0000000000
     34364       295  POPE      HY             45.9909749863      -11.3869359695      -16.1800491642  MEMB      295             0.0000000000
     34365       295  POPE      O31            46.0712650375      -10.7422101999      -14.2024566791  MEMB      295             0.0000000000
     34366       295  POPE      C31            46.9458720281      -10.9232198334      -13.1818552816  MEMB      295             0.0000000000
     34367       295  POPE      O32            48.0882053562      -11.1645168600      -13.2195252538  MEMB      295             0.0000000000
     34368       295  POPE      C32            46.1748073893      -10.4876040694      -11.8963463937  MEMB      295             0.0000000000
     34369       295  POPE      H2X            45.4100893243      -11.2316037723      -11.5865205900  MEMB      295             0.0000000000
     34370       295  POPE      H2Y            45.7643352730       -9.4596677326      -11.9921596127  MEMB      295             0.0000000000
     34371       295  POPE      C23            46.1104864952       -6.2920283526      -12.5656359051  MEMB      295             0.0000000000
     34372       295  POPE      H3R            45.4158799050       -7.1431580294      -12.4000433532  MEMB      295             0.0000000000
     34373       295  POPE      H3S            45.4507251420       -5.4969855032      -12.9742215380  MEMB      295             0.0000000000
     34374       295  POPE      C24            46.5679297208       -5.9889094723      -11.1025140272  MEMB      295             0.0000000000
     34375       295  POPE      H4R            47.4178154938       -5.2736087466      -11.0835401661  MEMB      295             0.0000000000
     34376       295  POPE      H4S            47.0171861115       -6.9493845225      -10.7708865187  MEMB      295             0.0000000000
     34377       295  POPE      C25            45.4788057737       -5.6065016484      -10.1726406700  MEMB      295             0.0000000000
     34378       295  POPE      H5R            44.7430095274       -6.4379135426      -10.1316618875  MEMB      295             0.0000000000
     34379       295  POPE      H5S            44.9714362730       -4.7311467673      -10.6316081429  MEMB      295             0.0000000000
     34380       295  POPE      C26            45.9937843087       -5.3660712270       -8.6730447751  MEMB      295             0.0000000000
     34381       295  POPE      H6R            46.3740902282       -4.3229516505       -8.7129157739  MEMB      295             0.0000000000
     34382       295  POPE      H6S            46.9134594669       -5.9866823071       -8.6150763894  MEMB      295             0.0000000000
     34383       295  POPE      C27            44.9201939554       -5.6191650002       -7.5455012610  MEMB      295             0.0000000000
     34384       295  POPE      H7R            44.1197607483       -4.8685363972       -7.7192383752  MEMB      295             0.0000000000
     34385       295  POPE      H7S            45.5256224537       -5.2921353298       -6.6732467241  MEMB      295             0.0000000000
     34386       295  POPE      C28            44.2074339412       -7.0645437408       -7.5293118058  MEMB      295             0.0000000000
     34387       295  POPE      H8R            45.0721677846       -7.7615380705       -7.5018255505  MEMB      295             0.0000000000
     34388       295  POPE      H8S            43.7243644582       -7.3221005172       -8.4960733808  MEMB      295             0.0000000000
     34389       295  POPE      C29            43.2442155851       -7.3787938004       -6.4410073598  MEMB      295             0.0000000000
     34390       295  POPE      H91            42.3569683099       -6.7408887128       -6.5669791806  MEMB      295             0.0000000000
     34391       295  POPE      C210           43.2598590028       -8.4580845300       -5.5859968742  MEMB      295             0.0000000000
     34392       295  POPE      H101           42.6282613811       -8.4162381333       -4.6863675935  MEMB      295             0.0000000000
     34393       295  POPE      C211           44.2398413124       -9.5962004676       -5.5160880846  MEMB      295             0.0000000000
     34394       295  POPE      H11R           44.7583254135       -9.6893202233       -6.4942622296  MEMB      295             0.0000000000
     34395       295  POPE      H11S           43.7159491496      -10.5744287640       -5.4619818546  MEMB      295             0.0000000000
     34396       295  POPE      C212           45.2842411140       -9.5074601161       -4.4173838810  MEMB      295             0.0000000000
     34397       295  POPE      H12R           45.9603114105      -10.3661036464       -4.6173366627  MEMB      295             0.0000000000
     34398       295  POPE      H12S           44.8910183479       -9.8029340602       -3.4211952393  MEMB      295             0.0000000000
     34399       295  POPE      C213           46.0594195674       -8.1272079702       -4.4056051820  MEMB      295             0.0000000000
     34400       295  POPE      H13R           45.4098332060       -7.2311982351       -4.3080089124  MEMB      295             0.0000000000
     34401       295  POPE      H13S           46.4455848369       -8.0276332905       -5.4425628557  MEMB      295             0.0000000000
     34402       295  POPE      C214           47.0629637742       -7.8389184888       -3.2897825294  MEMB      295             0.0000000000
     34403       295  POPE      H14R           47.4979570067       -6.8223625162       -3.3980224456  MEMB      295             0.0000000000
     34404       295  POPE      H14S           47.8748154929       -8.5909196318       -3.3883324925  MEMB      295             0.0000000000
     34405       295  POPE      C215           46.4677351292       -7.9266704847       -1.8813464143  MEMB      295             0.0000000000
     34406       295  POPE      H15R           46.1743628585       -8.9514179274       -1.5680638818  MEMB      295             0.0000000000
     34407       295  POPE      H15S           45.5617450223       -7.2836621328       -1.8747550225  MEMB      295             0.0000000000
     34408       295  POPE      C216           47.3411796386       -7.2858005121       -0.7231697448  MEMB      295             0.0000000000
     34409       295  POPE      H16R           48.2754098640       -7.8855224228       -0.7663945378  MEMB      295             0.0000000000
     34410       295  POPE      H16S           46.8245933906       -7.4574300018        0.2453357401  MEMB      295             0.0000000000
     34411       295  POPE      C217           47.6122938298       -5.7490866578       -1.0323219670  MEMB      295             0.0000000000
     34412       295  POPE      H17R           46.6489827455       -5.2093742164       -1.1550560000  MEMB      295             0.0000000000
     34413       295  POPE      H17S           48.4193535507       -5.6141792712       -1.7838363860  MEMB      295             0.0000000000
     34414       295  POPE      C218           48.2182818087       -5.0550850223        0.2132089858  MEMB      295             0.0000000000
     34415       295  POPE      H18R           47.6236570064       -5.2943746935        1.1206685771  MEMB      295             0.0000000000
     34416       295  POPE      H18S           48.2978765747       -3.9500232671        0.1305982069  MEMB      295             0.0000000000
     34417       295  POPE      H18T           49.1757788792       -5.5158571207        0.5375665124  MEMB      295             0.0000000000
     34418       295  POPE      C33            47.1433018374      -10.4887675093      -10.6722485960  MEMB      295             0.0000000000
     34419       295  POPE      H3X            48.0212964228       -9.8670373211      -10.9495537440  MEMB      295             0.0000000000
     34420       295  POPE      H3Y            47.6073087431      -11.4715038553      -10.4414940176  MEMB      295             0.0000000000
     34421       295  POPE      C34            46.5827401840      -10.0389185826       -9.3443958204  MEMB      295             0.0000000000
     34422       295  POPE      H4X            46.2582494733      -10.9607209584       -8.8159002596  MEMB      295             0.0000000000
     34423       295  POPE      H4Y            45.7553014211       -9.3049687178       -9.4492001805  MEMB      295             0.0000000000
     34424       295  POPE      C35            47.6394421332       -9.2092420721       -8.5544309843  MEMB      295             0.0000000000
     34425       295  POPE      H5X            47.1915044002       -8.6343337852       -7.7158890582  MEMB      295             0.0000000000
     34426       295  POPE      H5Y            48.0773754335       -8.4819973594       -9.2711250045  MEMB      295             0.0000000000
     34427       295  POPE      C36            48.6647255826      -10.1500643152       -7.8892150093  MEMB      295             0.0000000000
     34428       295  POPE      H6X            49.1052735181      -10.7812757831       -8.6903459952  MEMB      295             0.0000000000
     34429       295  POPE      H6Y            48.0933972949      -10.7556034748       -7.1535334890  MEMB      295             0.0000000000
     34430       295  POPE      C37            49.6989220532       -9.2841167603       -7.1526645228  MEMB      295             0.0000000000
     34431       295  POPE      H7X            49.2055798650       -8.8760275092       -6.2447011131  MEMB      295             0.0000000000
     34432       295  POPE      H7Y            49.9626074410       -8.3564688728       -7.7042627448  MEMB      295             0.0000000000
     34433       295  POPE      C38            51.0437437086      -10.0506455152       -6.7560407721  MEMB      295             0.0000000000
     34434       295  POPE      H8X            51.5249827778      -10.2546791346       -7.7363977553  MEMB      295             0.0000000000
     34435       295  POPE      H8Y            50.9540227878      -10.9431728127       -6.1005513017  MEMB      295             0.0000000000
     34436       295  POPE      C39            52.0606119490       -9.1033423265       -5.9964339200  MEMB      295             0.0000000000
     34437       295  POPE      H9X            52.3996480527       -8.3799782845       -6.7685216246  MEMB      295             0.0000000000
     34438       295  POPE      H9Y            52.9819719849       -9.6453592265       -5.6937222748  MEMB      295             0.0000000000
     34439       295  POPE      C310           51.5564064323       -8.2711936041       -4.8110636844  MEMB      295             0.0000000000
     34440       295  POPE      H10X           50.7706657600       -7.5954103432       -5.2113752508  MEMB      295             0.0000000000
     34441       295  POPE      H10Y           52.3811219769       -7.6793171645       -4.3595687383  MEMB      295             0.0000000000
     34442       295  POPE      C311           50.8989217154       -9.0809212360       -3.7678486408  MEMB      295             0.0000000000
     34443       295  POPE      H11X           51.5176855315       -9.9782107756       -3.5526186666  MEMB      295             0.0000000000
     34444       295  POPE      H11Y           49.9089211675       -9.4865558939       -4.0673148179  MEMB      295             0.0000000000
     34445       295  POPE      C312           50.7158326895       -8.3245803176       -2.4678672644  MEMB      295             0.0000000000
     34446       295  POPE      H12X           49.9073826486       -8.9353759456       -2.0121718087  MEMB      295             0.0000000000
     34447       295  POPE      H12Y           50.3079514980       -7.3106414315       -2.6675714382  MEMB      295             0.0000000000
     34448       295  POPE      C313           51.9114541121       -8.2072433519       -1.5661268888  MEMB      295             0.0000000000
     34449       295  POPE      H13X           52.7659603556       -7.8090382329       -2.1539821555  MEMB      295             0.0000000000
     34450       295  POPE      H13Y           52.2899077866       -9.2081558808       -1.2673512314  MEMB      295             0.0000000000
     34451       295  POPE      C314           51.6835382233       -7.3200103433       -0.3173099531  MEMB      295             0.0000000000
     34452       295  POPE      H14X           50.9895514344       -7.7011838019        0.4620555485  MEMB      295             0.0000000000
     34453       295  POPE      H14Y           51.3242005085       -6.3209946584       -0.6446708055  MEMB      295             0.0000000000
     34454       295  POPE      C315           52.8866800622       -7.1529783247        0.5837799049  MEMB      295             0.0000000000
     34455       295  POPE      H15X           52.7363321028       -6.2155841381        1.1608489765  MEMB      295             0.0000000000
     34456       295  POPE      H15Y           53.6915721878       -7.0418301706       -0.1739232377  MEMB      295             0.0000000000
     34457       295  POPE      C316           53.1793799466       -8.2686581607        1.6862873718  MEMB      295             0.0000000000
     34458       295  POPE      H16X           52.2800077816       -8.4097080472        2.3231191795  MEMB      295             0.0000000000
     34459       295  POPE      H16Y           54.1032347799       -8.0209455258        2.2514886872  MEMB      295             0.0000000000
     34460       295  POPE      H16Z           53.2221988383       -9.2304431165        1.1317996795  MEMB      295             0.0000000000
     34461       296  POPC      N              27.4792075279      -40.4215453781      -18.4651341667  MEMB      296             0.0000000000
     34462       296  POPC      C12            27.0518775487      -41.0710928739      -19.7497130718  MEMB      296             0.0000000000
     34463       296  POPC      H12A           27.6848068988      -41.9346322346      -19.8914883648  MEMB      296             0.0000000000
     34464       296  POPC      H12B           27.2227711522      -40.3534930024      -20.5385386100  MEMB      296             0.0000000000
     34465       296  POPC      C13            28.9280400906      -39.9341073180      -18.7519259413  MEMB      296             0.0000000000
     34466       296  POPC      H13A           29.0523526501      -39.2727957509      -19.5966823421  MEMB      296             0.0000000000
     34467       296  POPC      H13B           29.1921126293      -39.3091221131      -17.9116527846  MEMB      296             0.0000000000
     34468       296  POPC      H13C           29.5965846091      -40.7653026140      -18.9209295774  MEMB      296             0.0000000000
     34469       296  POPC      C14            26.5596935760      -39.1855403211      -18.3096088798  MEMB      296             0.0000000000
     34470       296  POPC      H14A           25.5183956562      -39.4612710670      -18.2316918787  MEMB      296             0.0000000000
     34471       296  POPC      H14B           26.8345841495      -38.5365088770      -17.4913220261  MEMB      296             0.0000000000
     34472       296  POPC      H14C           26.6205811884      -38.5694138994      -19.1945274303  MEMB      296             0.0000000000
     34473       296  POPC      C15            27.6165091505      -41.2405225659      -17.2704681493  MEMB      296             0.0000000000
     34474       296  POPC      H15A           28.4742544872      -41.8868525022      -17.3841799467  MEMB      296             0.0000000000
     34475       296  POPC      H15B           26.6554746569      -41.6131662279      -16.9480561604  MEMB      296             0.0000000000
     34476       296  POPC      H15C           27.9588693573      -40.5876641348      -16.4811865653  MEMB      296             0.0000000000
     34477       296  POPC      C11            25.5369019218      -41.6413501830      -19.8219685083  MEMB      296             0.0000000000
     34478       296  POPC      H11A           25.1812338118      -41.8703220733      -20.8492917785  MEMB      296             0.0000000000
     34479       296  POPC      H11B           24.9465966219      -40.8064533727      -19.3874482028  MEMB      296             0.0000000000
     34480       296  POPC      P              26.1767537654      -44.0632769027      -19.3754334268  MEMB      296             0.0000000000
     34481       296  POPC      O13            27.6067046636      -43.9170743747      -19.0132746939  MEMB      296             0.0000000000
     34482       296  POPC      O14            25.8541505452      -44.3154477603      -20.8160067252  MEMB      296             0.0000000000
     34483       296  POPC      O12            25.3598751986      -42.7687577231      -18.9002138026  MEMB      296             0.0000000000
     34484       296  POPC      O11            25.6800048129      -45.2498254038      -18.5262526291  MEMB      296             0.0000000000
     34485       296  POPC      C1             24.2774408882      -45.4071948801      -18.2446009746  MEMB      296             0.0000000000
     34486       296  POPC      HA             23.9297045563      -46.3277146448      -18.7603948133  MEMB      296             0.0000000000
     34487       296  POPC      HB             23.6432843951      -44.6102740646      -18.6885421700  MEMB      296             0.0000000000
     34488       296  POPC      C2             23.9487356051      -45.3766665445      -16.7599749023  MEMB      296             0.0000000000
     34489       296  POPC      HS             22.8974004211      -45.7230512472      -16.8550165863  MEMB      296             0.0000000000
     34490       296  POPC      O21            24.1029018508      -44.1102783456      -16.1500654417  MEMB      296             0.0000000000
     34491       296  POPC      C21            23.3252121373      -43.0738193144      -16.5436816909  MEMB      296             0.0000000000
     34492       296  POPC      O22            22.2916412862      -43.0938607821      -17.2449545857  MEMB      296             0.0000000000
     34493       296  POPC      C22            24.0124288662      -41.9645019879      -15.7605293416  MEMB      296             0.0000000000
     34494       296  POPC      H2R            23.9206768732      -41.0258130279      -16.3476965507  MEMB      296             0.0000000000
     34495       296  POPC      H2S            25.1143667649      -41.9868391071      -15.6206909585  MEMB      296             0.0000000000
     34496       296  POPC      C3             24.8506946229      -46.3236016838      -15.9180037077  MEMB      296             0.0000000000
     34497       296  POPC      HX             25.9142348722      -46.0395693155      -16.0680994055  MEMB      296             0.0000000000
     34498       296  POPC      HY             24.7130690257      -47.3630191865      -16.2854161339  MEMB      296             0.0000000000
     34499       296  POPC      O31            24.3624151753      -46.2913540270      -14.5925332089  MEMB      296             0.0000000000
     34500       296  POPC      C31            25.1283257242      -45.8855762310      -13.5819513468  MEMB      296             0.0000000000
     34501       296  POPC      O32            26.2732819118      -45.5797275493      -13.6273210581  MEMB      296             0.0000000000
     34502       296  POPC      C32            24.1436702727      -45.7732946717      -12.4263170498  MEMB      296             0.0000000000
     34503       296  POPC      H2X            23.5585537592      -46.6943992250      -12.2176886950  MEMB      296             0.0000000000
     34504       296  POPC      H2Y            23.3056087910      -45.1323118109      -12.7743326598  MEMB      296             0.0000000000
     34505       296  POPC      C23            23.1977298444      -41.6922904965      -14.4388456610  MEMB      296             0.0000000000
     34506       296  POPC      H3R            23.1018838048      -42.6196552074      -13.8345864263  MEMB      296             0.0000000000
     34507       296  POPC      H3S            22.1934463125      -41.2560152266      -14.6269920045  MEMB      296             0.0000000000
     34508       296  POPC      C24            24.0350758979      -40.8087639945      -13.4408941585  MEMB      296             0.0000000000
     34509       296  POPC      H4R            23.3735666678      -40.5393564382      -12.5899262463  MEMB      296             0.0000000000
     34510       296  POPC      H4S            24.2962278278      -39.8592831586      -13.9552932333  MEMB      296             0.0000000000
     34511       296  POPC      C25            25.3784926513      -41.4325736448      -12.8162826277  MEMB      296             0.0000000000
     34512       296  POPC      H5R            26.1905130348      -41.4862424723      -13.5726313107  MEMB      296             0.0000000000
     34513       296  POPC      H5S            25.0673440678      -42.3919141372      -12.3502639678  MEMB      296             0.0000000000
     34514       296  POPC      C26            25.8714143780      -40.5010506839      -11.6697848980  MEMB      296             0.0000000000
     34515       296  POPC      H6R            26.1725833079      -39.5264410635      -12.1099600611  MEMB      296             0.0000000000
     34516       296  POPC      H6S            26.8230983638      -40.8892203024      -11.2479520180  MEMB      296             0.0000000000
     34517       296  POPC      C27            25.0601608332      -40.3237296272      -10.4362864772  MEMB      296             0.0000000000
     34518       296  POPC      H7R            24.3603138010      -41.1780226046      -10.3149659759  MEMB      296             0.0000000000
     34519       296  POPC      H7S            24.4477696545      -39.4034100727      -10.5472365227  MEMB      296             0.0000000000
     34520       296  POPC      C28            25.8851116385      -40.0808076814       -9.1964663271  MEMB      296             0.0000000000
     34521       296  POPC      H8R            26.7197026361      -39.3947131437       -9.4554139617  MEMB      296             0.0000000000
     34522       296  POPC      H8S            26.3765208549      -41.0350613375       -8.9096957502  MEMB      296             0.0000000000
     34523       296  POPC      C29            25.0358290906      -39.4375329856       -8.1186094275  MEMB      296             0.0000000000
     34524       296  POPC      H91            24.8790748331      -38.3719579655       -8.3421656841  MEMB      296             0.0000000000
     34525       296  POPC      C210           24.5476293427      -40.0240827583       -7.0364234333  MEMB      296             0.0000000000
     34526       296  POPC      H101           24.2093698381      -39.4561931344       -6.1571734858  MEMB      296             0.0000000000
     34527       296  POPC      C211           24.7114030304      -41.5115698164       -6.6649091923  MEMB      296             0.0000000000
     34528       296  POPC      H11R           25.4897538638      -41.4911671022       -5.8723973174  MEMB      296             0.0000000000
     34529       296  POPC      H11S           25.0211624244      -42.1575764694       -7.5140528093  MEMB      296             0.0000000000
     34530       296  POPC      C212           23.5300839192      -42.0588110698       -5.8959034070  MEMB      296             0.0000000000
     34531       296  POPC      H12R           22.5403151733      -42.0438874759       -6.4003396656  MEMB      296             0.0000000000
     34532       296  POPC      H12S           23.5781595656      -41.3956017606       -5.0058683648  MEMB      296             0.0000000000
     34533       296  POPC      C213           23.9277854047      -43.4954013283       -5.3759317357  MEMB      296             0.0000000000
     34534       296  POPC      H13R           24.8155829663      -43.4086451289       -4.7136554872  MEMB      296             0.0000000000
     34535       296  POPC      H13S           24.1514836953      -44.1529829382       -6.2430340868  MEMB      296             0.0000000000
     34536       296  POPC      C214           22.6753298035      -44.1191295674       -4.6612073165  MEMB      296             0.0000000000
     34537       296  POPC      H14R           22.0457509014      -44.6208514639       -5.4268612605  MEMB      296             0.0000000000
     34538       296  POPC      H14S           22.0990977288      -43.2999902799       -4.1802819939  MEMB      296             0.0000000000
     34539       296  POPC      C215           23.0547225942      -45.1768313046       -3.6802339351  MEMB      296             0.0000000000
     34540       296  POPC      H15R           23.8181645074      -45.8198834320       -4.1680470961  MEMB      296             0.0000000000
     34541       296  POPC      H15S           22.1722459459      -45.7115557769       -3.2683771769  MEMB      296             0.0000000000
     34542       296  POPC      C216           23.7600594648      -44.7549346004       -2.3282853035  MEMB      296             0.0000000000
     34543       296  POPC      H16R           23.1158686991      -44.0492616426       -1.7613944975  MEMB      296             0.0000000000
     34544       296  POPC      H16S           24.6060358855      -44.1569308355       -2.7295771749  MEMB      296             0.0000000000
     34545       296  POPC      C217           24.3727520165      -45.7968876105       -1.3867930911  MEMB      296             0.0000000000
     34546       296  POPC      H17R           23.6658006102      -46.5543727152       -0.9858484015  MEMB      296             0.0000000000
     34547       296  POPC      H17S           24.5670108611      -45.1526081217       -0.5027754393  MEMB      296             0.0000000000
     34548       296  POPC      C218           25.6927080826      -46.4029343062       -1.9673307013  MEMB      296             0.0000000000
     34549       296  POPC      H18R           26.3447370791      -45.5823971676       -2.3359745675  MEMB      296             0.0000000000
     34550       296  POPC      H18S           25.5154366172      -47.0425732676       -2.8582606204  MEMB      296             0.0000000000
     34551       296  POPC      H18T           26.3542789981      -46.8357557811       -1.1867473148  MEMB      296             0.0000000000
     34552       296  POPC      C33            24.8192174389      -45.1893341579      -11.2048002182  MEMB      296             0.0000000000
     34553       296  POPC      H3X            24.0291228445      -44.9414542971      -10.4641068326  MEMB      296             0.0000000000
     34554       296  POPC      H3Y            25.4921798431      -44.3530252019      -11.4912088398  MEMB      296             0.0000000000
     34555       296  POPC      C34            25.6055513375      -46.3457468312      -10.5117851042  MEMB      296             0.0000000000
     34556       296  POPC      H4X            26.2977791953      -46.7456799029      -11.2832732813  MEMB      296             0.0000000000
     34557       296  POPC      H4Y            24.9868267765      -47.1795183239      -10.1164028406  MEMB      296             0.0000000000
     34558       296  POPC      C35            26.6424839382      -45.8470368614       -9.4299397240  MEMB      296             0.0000000000
     34559       296  POPC      H5X            27.1558025500      -46.7793793937       -9.1112506900  MEMB      296             0.0000000000
     34560       296  POPC      H5Y            26.0715190879      -45.3616981265       -8.6097159066  MEMB      296             0.0000000000
     34561       296  POPC      C36            27.7347099075      -44.9409203277       -9.9879539480  MEMB      296             0.0000000000
     34562       296  POPC      H6X            27.5856286840      -43.8583462054       -9.7876314999  MEMB      296             0.0000000000
     34563       296  POPC      H6Y            27.8595077408      -45.0468575391      -11.0868277386  MEMB      296             0.0000000000
     34564       296  POPC      C37            29.2539115142      -45.2077758276       -9.6395524879  MEMB      296             0.0000000000
     34565       296  POPC      H7X            29.8836861698      -44.4309068887      -10.1234735731  MEMB      296             0.0000000000
     34566       296  POPC      H7Y            29.5005848826      -46.2196397524      -10.0263401129  MEMB      296             0.0000000000
     34567       296  POPC      C38            29.4905220425      -45.0607205571       -8.1495299369  MEMB      296             0.0000000000
     34568       296  POPC      H8X            30.5411134783      -45.2129347814       -7.8217964190  MEMB      296             0.0000000000
     34569       296  POPC      H8Y            28.8678794391      -45.8479080074       -7.6731138617  MEMB      296             0.0000000000
     34570       296  POPC      C39            29.0579673426      -43.7084239915       -7.4889047656  MEMB      296             0.0000000000
     34571       296  POPC      H9X            28.1385289192      -43.3155854610       -7.9732922564  MEMB      296             0.0000000000
     34572       296  POPC      H9Y            29.8556684460      -42.9555330115       -7.6653937640  MEMB      296             0.0000000000
     34573       296  POPC      C310           29.0378476807      -43.8987371665       -5.9383327561  MEMB      296             0.0000000000
     34574       296  POPC      H10X           30.0521674348      -44.1182041370       -5.5417096205  MEMB      296             0.0000000000
     34575       296  POPC      H10Y           28.3881244637      -44.7812651141       -5.7557796521  MEMB      296             0.0000000000
     34576       296  POPC      C311           28.4229398645      -42.6825481717       -5.2948310051  MEMB      296             0.0000000000
     34577       296  POPC      H11X           27.4358745687      -42.3491668225       -5.6806799313  MEMB      296             0.0000000000
     34578       296  POPC      H11Y           29.1346967101      -41.8524188446       -5.4913217984  MEMB      296             0.0000000000
     34579       296  POPC      C312           28.2168604376      -42.8652921051       -3.7545335029  MEMB      296             0.0000000000
     34580       296  POPC      H12X           29.1914420026      -42.8257337510       -3.2226058376  MEMB      296             0.0000000000
     34581       296  POPC      H12Y           27.6772159522      -43.8081419145       -3.5218546827  MEMB      296             0.0000000000
     34582       296  POPC      C313           27.3568858462      -41.6518393279       -3.3075307762  MEMB      296             0.0000000000
     34583       296  POPC      H13X           26.3751417359      -41.7334402348       -3.8211851828  MEMB      296             0.0000000000
     34584       296  POPC      H13Y           27.8011251470      -40.7182129438       -3.7141185354  MEMB      296             0.0000000000
     34585       296  POPC      C314           27.2867497218      -41.3456687392       -1.8267977561  MEMB      296             0.0000000000
     34586       296  POPC      H14X           27.1567000851      -40.2815833410       -1.5350268469  MEMB      296             0.0000000000
     34587       296  POPC      H14Y           28.2020351523      -41.6783478394       -1.2921039289  MEMB      296             0.0000000000
     34588       296  POPC      C315           26.1862461680      -42.1199373652       -1.1040909911  MEMB      296             0.0000000000
     34589       296  POPC      H15X           26.2181663346      -43.2026401089       -1.3511874100  MEMB      296             0.0000000000
     34590       296  POPC      H15Y           25.2786106569      -41.6336699366       -1.5212991426  MEMB      296             0.0000000000
     34591       296  POPC      C316           26.1617833063      -41.8625970785        0.3749547261  MEMB      296             0.0000000000
     34592       296  POPC      H16X           26.2230240806      -40.7697313388        0.5652566182  MEMB      296             0.0000000000
     34593       296  POPC      H16Y           26.9828650058      -42.4768453960        0.8025573308  MEMB      296             0.0000000000
     34594       296  POPC      H16Z           25.3029963707      -42.2866197122        0.9379912234  MEMB      296             0.0000000000
     34595       297  POPC      N             -47.9232590834       12.2354173034      -18.5266340982  MEMB      297             0.0000000000
     34596       297  POPC      C12           -49.0775921724       11.3838228460      -19.1183564757  MEMB      297             0.0000000000
     34597       297  POPC      H12A          -49.2305561735       11.7752616376      -20.1132321771  MEMB      297             0.0000000000
     34598       297  POPC      H12B          -49.9551611105       11.5639958394      -18.5151897074  MEMB      297             0.0000000000
     34599       297  POPC      C13           -46.5347698538       11.8338386238      -18.9584171538  MEMB      297             0.0000000000
     34600       297  POPC      H13A          -46.2935234847       12.0388630361      -19.9909699091  MEMB      297             0.0000000000
     34601       297  POPC      H13B          -45.8428457786       12.2674046506      -18.2515496571  MEMB      297             0.0000000000
     34602       297  POPC      H13C          -46.4184377679       10.7934539493      -18.6929620411  MEMB      297             0.0000000000
     34603       297  POPC      C14           -48.2824144106       13.7042287784      -18.8471615752  MEMB      297             0.0000000000
     34604       297  POPC      H14A          -47.6304528906       14.3190960403      -18.2444307185  MEMB      297             0.0000000000
     34605       297  POPC      H14B          -48.0600567509       13.8394605276      -19.8953358108  MEMB      297             0.0000000000
     34606       297  POPC      H14C          -49.3182482496       13.9414665359      -18.6543738628  MEMB      297             0.0000000000
     34607       297  POPC      C15           -47.9433021729       12.1420689356      -17.0382394663  MEMB      297             0.0000000000
     34608       297  POPC      H15A          -48.9477842837       12.2187590207      -16.6489654516  MEMB      297             0.0000000000
     34609       297  POPC      H15B          -47.2895706027       12.8433116039      -16.5409528494  MEMB      297             0.0000000000
     34610       297  POPC      H15C          -47.6249085724       11.1602559276      -16.7203263662  MEMB      297             0.0000000000
     34611       297  POPC      C11           -48.9254037448        9.7481933213      -19.0287014990  MEMB      297             0.0000000000
     34612       297  POPC      H11A          -49.8090220595        9.2931474957      -19.5251618925  MEMB      297             0.0000000000
     34613       297  POPC      H11B          -48.9825838143        9.4755125353      -17.9532032292  MEMB      297             0.0000000000
     34614       297  POPC      P             -47.3985619560        7.6937083299      -19.5760576465  MEMB      297             0.0000000000
     34615       297  POPC      O13           -46.0232365522        7.4836707064      -20.1313941499  MEMB      297             0.0000000000
     34616       297  POPC      O14           -48.5402143143        6.9000692725      -20.0788111232  MEMB      297             0.0000000000
     34617       297  POPC      O12           -47.7645960601        9.2398375241      -19.6920463627  MEMB      297             0.0000000000
     34618       297  POPC      O11           -47.3391924127        7.5768404352      -18.0041804494  MEMB      297             0.0000000000
     34619       297  POPC      C1            -46.1408438208        7.7633788504      -17.2971639898  MEMB      297             0.0000000000
     34620       297  POPC      HA            -45.7194138461        8.7843798193      -17.4166411779  MEMB      297             0.0000000000
     34621       297  POPC      HB            -45.4181927436        7.0828404727      -17.7961270315  MEMB      297             0.0000000000
     34622       297  POPC      C2            -46.2695283636        7.3249444061      -15.8148029587  MEMB      297             0.0000000000
     34623       297  POPC      HS            -45.8903942933        6.2955207950      -15.6391173688  MEMB      297             0.0000000000
     34624       297  POPC      O21           -47.5904343305        7.4417642316      -15.2948221577  MEMB      297             0.0000000000
     34625       297  POPC      C21           -48.3426518906        6.4608483158      -15.5563293567  MEMB      297             0.0000000000
     34626       297  POPC      O22           -48.1756455227        5.4182780913      -16.2130563978  MEMB      297             0.0000000000
     34627       297  POPC      C22           -49.6561392473        6.8049822585      -14.7905954004  MEMB      297             0.0000000000
     34628       297  POPC      H2R           -50.4534685962        6.0447160733      -14.9340587339  MEMB      297             0.0000000000
     34629       297  POPC      H2S           -50.0116937530        7.7198326018      -15.3111246407  MEMB      297             0.0000000000
     34630       297  POPC      C3            -45.4197142987        8.2560853531      -14.8898066293  MEMB      297             0.0000000000
     34631       297  POPC      HX            -45.6664798529        9.3229417536      -15.0775439964  MEMB      297             0.0000000000
     34632       297  POPC      HY            -44.3660712216        8.2185123586      -15.2401569650  MEMB      297             0.0000000000
     34633       297  POPC      O31           -45.5396728969        7.9839581927      -13.5259725614  MEMB      297             0.0000000000
     34634       297  POPC      C31           -44.5818014611        7.6515570094      -12.7142192309  MEMB      297             0.0000000000
     34635       297  POPC      O32           -43.3675289351        7.6891887339      -13.0292923626  MEMB      297             0.0000000000
     34636       297  POPC      C32           -45.2469176331        7.2191880541      -11.4151768146  MEMB      297             0.0000000000
     34637       297  POPC      H2X           -44.5732190807        6.5897683202      -10.7952721719  MEMB      297             0.0000000000
     34638       297  POPC      H2Y           -46.1506250143        6.5803876515      -11.5129929244  MEMB      297             0.0000000000
     34639       297  POPC      C23           -49.4330726610        7.0619053674      -13.2489051143  MEMB      297             0.0000000000
     34640       297  POPC      H3R           -48.7061833700        7.8855717180      -13.0829929096  MEMB      297             0.0000000000
     34641       297  POPC      H3S           -48.8590170243        6.1923115042      -12.8634343652  MEMB      297             0.0000000000
     34642       297  POPC      C24           -50.6647375637        7.0391782541      -12.3021080687  MEMB      297             0.0000000000
     34643       297  POPC      H4R           -51.4043690478        6.2542119072      -12.5687425940  MEMB      297             0.0000000000
     34644       297  POPC      H4S           -51.1168918156        8.0409382482      -12.4644485277  MEMB      297             0.0000000000
     34645       297  POPC      C25           -50.4073395303        6.8649320102      -10.7874792580  MEMB      297             0.0000000000
     34646       297  POPC      H5R           -49.9150716870        5.8696903363      -10.7489110660  MEMB      297             0.0000000000
     34647       297  POPC      H5S           -51.3989288600        6.8195133174      -10.2884707979  MEMB      297             0.0000000000
     34648       297  POPC      C26           -49.6713916587        7.9829702805      -10.1159821694  MEMB      297             0.0000000000
     34649       297  POPC      H6R           -48.8844874425        8.3321018964      -10.8182705348  MEMB      297             0.0000000000
     34650       297  POPC      H6S           -49.3051543809        7.7712853237       -9.0886645713  MEMB      297             0.0000000000
     34651       297  POPC      C27           -50.5795213335        9.2791051375       -9.9171823974  MEMB      297             0.0000000000
     34652       297  POPC      H7R           -51.4317443069        8.9520755487       -9.2838665746  MEMB      297             0.0000000000
     34653       297  POPC      H7S           -50.9046878362        9.6629658679      -10.9077573294  MEMB      297             0.0000000000
     34654       297  POPC      C28           -49.9038608273       10.5107707385       -9.1195365162  MEMB      297             0.0000000000
     34655       297  POPC      H8R           -49.2403848000       10.9738861874       -9.8808811281  MEMB      297             0.0000000000
     34656       297  POPC      H8S           -49.3105920237       10.0985868825       -8.2754652855  MEMB      297             0.0000000000
     34657       297  POPC      C29           -50.7630419875       11.6138857862       -8.7218478499  MEMB      297             0.0000000000
     34658       297  POPC      H91           -51.2049208145       12.0827474278       -9.6134252879  MEMB      297             0.0000000000
     34659       297  POPC      C210          -50.9448220872       12.0978905840       -7.4830304826  MEMB      297             0.0000000000
     34660       297  POPC      H101          -51.4340827665       13.0830574767       -7.4746235924  MEMB      297             0.0000000000
     34661       297  POPC      C211          -50.3468380232       11.6739944334       -6.2088629038  MEMB      297             0.0000000000
     34662       297  POPC      H11R          -49.7603971148       12.5655499038       -5.8997726820  MEMB      297             0.0000000000
     34663       297  POPC      H11S          -49.6870595331       10.7816783723       -6.2616360536  MEMB      297             0.0000000000
     34664       297  POPC      C212          -51.3067249478       11.2996113524       -5.0612302160  MEMB      297             0.0000000000
     34665       297  POPC      H12R          -51.9133777963       12.1631886728       -4.7140585658  MEMB      297             0.0000000000
     34666       297  POPC      H12S          -50.6570321095       11.1581629953       -4.1711663238  MEMB      297             0.0000000000
     34667       297  POPC      C213          -52.1794561559       10.0188089842       -5.3482356645  MEMB      297             0.0000000000
     34668       297  POPC      H13R          -52.9629867384       10.2628018135       -6.0971464429  MEMB      297             0.0000000000
     34669       297  POPC      H13S          -52.6582421000        9.7642144900       -4.3785615241  MEMB      297             0.0000000000
     34670       297  POPC      C214          -51.4511064135        8.6666147018       -5.6599662486  MEMB      297             0.0000000000
     34671       297  POPC      H14R          -51.1093187907        8.6810535686       -6.7169866277  MEMB      297             0.0000000000
     34672       297  POPC      H14S          -52.1357296221        7.8002617490       -5.5373102042  MEMB      297             0.0000000000
     34673       297  POPC      C215          -50.1882837089        8.4664913038       -4.8112055873  MEMB      297             0.0000000000
     34674       297  POPC      H15R          -49.3993785882        9.2483563099       -4.8364427546  MEMB      297             0.0000000000
     34675       297  POPC      H15S          -49.6993283085        7.5422376718       -5.1867041781  MEMB      297             0.0000000000
     34676       297  POPC      C216          -50.5061968072        8.2024518244       -3.3744108356  MEMB      297             0.0000000000
     34677       297  POPC      H16R          -51.1067791050        7.2691139172       -3.3243930599  MEMB      297             0.0000000000
     34678       297  POPC      H16S          -51.1265013266        8.9285150116       -2.8066285853  MEMB      297             0.0000000000
     34679       297  POPC      C217          -49.2219943772        7.9120967829       -2.5436394735  MEMB      297             0.0000000000
     34680       297  POPC      H17R          -48.4329627959        7.5185914340       -3.2195857252  MEMB      297             0.0000000000
     34681       297  POPC      H17S          -49.5109906081        7.1417667268       -1.7970514904  MEMB      297             0.0000000000
     34682       297  POPC      C218          -48.7898304552        9.0254323452       -1.6176125407  MEMB      297             0.0000000000
     34683       297  POPC      H18R          -49.6913475820        9.2141742856       -0.9963513159  MEMB      297             0.0000000000
     34684       297  POPC      H18S          -48.4144022094        9.9812488098       -2.0416268822  MEMB      297             0.0000000000
     34685       297  POPC      H18T          -48.1458102509        8.5443564428       -0.8507181724  MEMB      297             0.0000000000
     34686       297  POPC      C33           -45.3537193072        8.5690579680      -10.6946441462  MEMB      297             0.0000000000
     34687       297  POPC      H3X           -46.0149652192        9.3061955979      -11.1983342970  MEMB      297             0.0000000000
     34688       297  POPC      H3Y           -44.3651126613        9.0756603213      -10.6764299805  MEMB      297             0.0000000000
     34689       297  POPC      C34           -46.0320745576        8.5338088214       -9.2876663594  MEMB      297             0.0000000000
     34690       297  POPC      H4X           -45.3122153226        7.9258614821       -8.6990039955  MEMB      297             0.0000000000
     34691       297  POPC      H4Y           -46.9596522094        7.9227420956       -9.2649057142  MEMB      297             0.0000000000
     34692       297  POPC      C35           -46.2467876530        9.9256423112       -8.5786272079  MEMB      297             0.0000000000
     34693       297  POPC      H5X           -47.0635252620       10.4898157558       -9.0775950232  MEMB      297             0.0000000000
     34694       297  POPC      H5Y           -45.2661445712       10.4476131712       -8.5642558126  MEMB      297             0.0000000000
     34695       297  POPC      C36           -46.7362841792        9.6150234273       -7.1627611428  MEMB      297             0.0000000000
     34696       297  POPC      H6X           -46.1298245865        8.8827435794       -6.5880482986  MEMB      297             0.0000000000
     34697       297  POPC      H6Y           -47.6615304807        9.0332205033       -7.3621241926  MEMB      297             0.0000000000
     34698       297  POPC      C37           -46.8259781372       10.7028148501       -6.0985609410  MEMB      297             0.0000000000
     34699       297  POPC      H7X           -47.6181581758       10.3759840428       -5.3914872149  MEMB      297             0.0000000000
     34700       297  POPC      H7Y           -47.0334905368       11.6996238396       -6.5431178016  MEMB      297             0.0000000000
     34701       297  POPC      C38           -45.5531874270       10.8594001527       -5.2501048813  MEMB      297             0.0000000000
     34702       297  POPC      H8X           -44.7193743031       11.1251827164       -5.9345289148  MEMB      297             0.0000000000
     34703       297  POPC      H8Y           -45.1793723482        9.9392790885       -4.7521481464  MEMB      297             0.0000000000
     34704       297  POPC      C39           -45.6508391770       12.0522626406       -4.3459324774  MEMB      297             0.0000000000
     34705       297  POPC      H9X           -46.6889687865       12.0272056465       -3.9509891187  MEMB      297             0.0000000000
     34706       297  POPC      H9Y           -45.6272954802       12.9890530660       -4.9427498670  MEMB      297             0.0000000000
     34707       297  POPC      C310          -44.5965188271       12.1168186233       -3.1964410912  MEMB      297             0.0000000000
     34708       297  POPC      H10X          -44.4208356866       13.1992654324       -3.0182118568  MEMB      297             0.0000000000
     34709       297  POPC      H10Y          -43.6408308047       11.7210490695       -3.6018394032  MEMB      297             0.0000000000
     34710       297  POPC      C311          -45.0249549139       11.4367866954       -1.8796681521  MEMB      297             0.0000000000
     34711       297  POPC      H11X          -46.0385614744       11.7323559207       -1.5338906212  MEMB      297             0.0000000000
     34712       297  POPC      H11Y          -44.3121499144       11.8401130627       -1.1289627187  MEMB      297             0.0000000000
     34713       297  POPC      C312          -44.9884888760        9.9000121252       -2.0167227309  MEMB      297             0.0000000000
     34714       297  POPC      H12X          -44.0796906027        9.4979681513       -2.5134789607  MEMB      297             0.0000000000
     34715       297  POPC      H12Y          -45.8758071648        9.5546382363       -2.5891760617  MEMB      297             0.0000000000
     34716       297  POPC      C313          -44.9397924745        9.2078931733       -0.6196765666  MEMB      297             0.0000000000
     34717       297  POPC      H13X          -45.8269874069        9.3397583731        0.0359270301  MEMB      297             0.0000000000
     34718       297  POPC      H13Y          -44.0654134312        9.6309196587       -0.0803898563  MEMB      297             0.0000000000
     34719       297  POPC      C314          -44.8953816352        7.6841797362       -0.6776376013  MEMB      297             0.0000000000
     34720       297  POPC      H14X          -45.8593485323        7.2509248346       -1.0202440173  MEMB      297             0.0000000000
     34721       297  POPC      H14Y          -44.6907177929        7.2992570691        0.3442578825  MEMB      297             0.0000000000
     34722       297  POPC      C315          -43.7359599361        7.1805121969       -1.6485155318  MEMB      297             0.0000000000
     34723       297  POPC      H15X          -42.9177347235        7.9283610194       -1.5740128285  MEMB      297             0.0000000000
     34724       297  POPC      H15Y          -44.0890866443        7.2022090310       -2.7016788262  MEMB      297             0.0000000000
     34725       297  POPC      C316          -43.2173931361        5.7599918871       -1.3606246017  MEMB      297             0.0000000000
     34726       297  POPC      H16X          -42.3285854744        5.4949741028       -1.9722671783  MEMB      297             0.0000000000
     34727       297  POPC      H16Y          -44.0239742798        5.0484330200       -1.6388891298  MEMB      297             0.0000000000
     34728       297  POPC      H16Z          -42.8120764103        5.6563568623       -0.3314025291  MEMB      297             0.0000000000
     34729       298  POPC      N             -13.1220328054       48.7068879294      -20.6629506382  MEMB      298             0.0000000000
     34730       298  POPC      C12           -13.8491074987       47.3764026853      -20.4075172037  MEMB      298             0.0000000000
     34731       298  POPC      H12A          -13.9030389305       46.8552401479      -21.3519118215  MEMB      298             0.0000000000
     34732       298  POPC      H12B          -14.8427469000       47.6363804424      -20.0736125719  MEMB      298             0.0000000000
     34733       298  POPC      C13           -13.0977376861       49.6585364957      -19.4666313971  MEMB      298             0.0000000000
     34734       298  POPC      H13A          -14.1492520255       49.7836722081      -19.2543611350  MEMB      298             0.0000000000
     34735       298  POPC      H13B          -12.6336500350       49.2384221495      -18.5865594699  MEMB      298             0.0000000000
     34736       298  POPC      H13C          -12.5935600259       50.5503344968      -19.8085394405  MEMB      298             0.0000000000
     34737       298  POPC      C14           -11.6398707745       48.4024781679      -21.0093894235  MEMB      298             0.0000000000
     34738       298  POPC      H14A          -11.2544104221       49.2295985646      -21.5870505007  MEMB      298             0.0000000000
     34739       298  POPC      H14B          -11.1032449533       48.1746245838      -20.1002604680  MEMB      298             0.0000000000
     34740       298  POPC      H14C          -11.6033292124       47.4962737625      -21.5957835777  MEMB      298             0.0000000000
     34741       298  POPC      C15           -13.8624410222       49.3517389608      -21.8476622814  MEMB      298             0.0000000000
     34742       298  POPC      H15A          -13.1998346647       50.0882929620      -22.2775938495  MEMB      298             0.0000000000
     34743       298  POPC      H15B          -14.8332577626       49.7304252941      -21.5639166672  MEMB      298             0.0000000000
     34744       298  POPC      H15C          -14.0483424614       48.4770432877      -22.4532595050  MEMB      298             0.0000000000
     34745       298  POPC      C11           -13.3283350918       46.4130898607      -19.3170446146  MEMB      298             0.0000000000
     34746       298  POPC      H11A          -12.2757058124       46.1045949175      -19.4934630553  MEMB      298             0.0000000000
     34747       298  POPC      H11B          -13.8564331271       45.4632635392      -19.5478331482  MEMB      298             0.0000000000
     34748       298  POPC      P             -14.8024331663       46.9347425080      -17.2964318588  MEMB      298             0.0000000000
     34749       298  POPC      O13           -15.1533078548       45.5202663367      -17.0364161838  MEMB      298             0.0000000000
     34750       298  POPC      O14           -15.7949317696       47.8091586012      -18.0480314125  MEMB      298             0.0000000000
     34751       298  POPC      O12           -13.3966385063       46.9555309699      -18.0018408063  MEMB      298             0.0000000000
     34752       298  POPC      O11           -14.5691009292       47.7050858841      -15.9060841763  MEMB      298             0.0000000000
     34753       298  POPC      C1            -14.5053341849       49.0897251208      -15.8892754913  MEMB      298             0.0000000000
     34754       298  POPC      HA            -15.5393263407       49.4951159355      -15.9182470642  MEMB      298             0.0000000000
     34755       298  POPC      HB            -13.9675214006       49.4807423653      -16.7793225811  MEMB      298             0.0000000000
     34756       298  POPC      C2            -13.8131338441       49.4553351100      -14.5320638025  MEMB      298             0.0000000000
     34757       298  POPC      HS            -13.2978247547       50.4325161640      -14.6499395843  MEMB      298             0.0000000000
     34758       298  POPC      O21           -12.7762976305       48.5174661883      -14.2267926679  MEMB      298             0.0000000000
     34759       298  POPC      C21           -11.6348861896       48.6687110798      -14.7536302067  MEMB      298             0.0000000000
     34760       298  POPC      O22           -11.2839520804       49.6665949430      -15.3955854893  MEMB      298             0.0000000000
     34761       298  POPC      C22           -10.6874606753       47.4465970295      -14.5056980972  MEMB      298             0.0000000000
     34762       298  POPC      H2R            -9.6222255748       47.7613339856      -14.4825531021  MEMB      298             0.0000000000
     34763       298  POPC      H2S           -10.8795097126       46.7891770281      -15.3804766467  MEMB      298             0.0000000000
     34764       298  POPC      C3            -14.8170404212       49.4721977956      -13.3277155923  MEMB      298             0.0000000000
     34765       298  POPC      HX            -15.1795503876       48.4313251881      -13.1881025200  MEMB      298             0.0000000000
     34766       298  POPC      HY            -15.7322216412       50.0436278435      -13.5927290336  MEMB      298             0.0000000000
     34767       298  POPC      O31           -14.1835320393       49.9110910200      -12.0995742505  MEMB      298             0.0000000000
     34768       298  POPC      C31           -13.9893503119       51.1918765775      -12.0537336326  MEMB      298             0.0000000000
     34769       298  POPC      O32           -14.3908610316       52.1082853356      -12.8197235682  MEMB      298             0.0000000000
     34770       298  POPC      C32           -13.0916743784       51.4097071763      -10.8210320475  MEMB      298             0.0000000000
     34771       298  POPC      H2X           -13.5937567405       50.9780082034       -9.9289165460  MEMB      298             0.0000000000
     34772       298  POPC      H2Y           -12.9124742954       52.4884939842      -10.6250042430  MEMB      298             0.0000000000
     34773       298  POPC      C23           -11.0866894577       46.6475125193      -13.1716387471  MEMB      298             0.0000000000
     34774       298  POPC      H3R           -11.3764679638       47.3082922786      -12.3268195414  MEMB      298             0.0000000000
     34775       298  POPC      H3S           -10.2251161598       46.0278265029      -12.8430029236  MEMB      298             0.0000000000
     34776       298  POPC      C24           -12.1220049452       45.5284562584      -13.4990737429  MEMB      298             0.0000000000
     34777       298  POPC      H4R           -11.6327892868       45.0577234811      -14.3785052092  MEMB      298             0.0000000000
     34778       298  POPC      H4S           -13.1071928898       45.9070275729      -13.8460743204  MEMB      298             0.0000000000
     34779       298  POPC      C25           -12.4338926150       44.5858450479      -12.4290107313  MEMB      298             0.0000000000
     34780       298  POPC      H5R           -11.4931481076       44.1798114652      -11.9995256122  MEMB      298             0.0000000000
     34781       298  POPC      H5S           -12.9849940384       43.7170532291      -12.8483065446  MEMB      298             0.0000000000
     34782       298  POPC      C26           -13.1466490404       45.1023614568      -11.1713957842  MEMB      298             0.0000000000
     34783       298  POPC      H6R           -14.0288816693       45.7574935667      -11.3350673020  MEMB      298             0.0000000000
     34784       298  POPC      H6S           -12.3988419645       45.7224237505      -10.6322963601  MEMB      298             0.0000000000
     34785       298  POPC      C27           -13.5700723334       43.9925182191      -10.1533147993  MEMB      298             0.0000000000
     34786       298  POPC      H7R           -12.8753949398       43.1332655665      -10.0374270004  MEMB      298             0.0000000000
     34787       298  POPC      H7S           -14.4052330930       43.4404009039      -10.6349720192  MEMB      298             0.0000000000
     34788       298  POPC      C28           -14.0912302814       44.5911670466       -8.9262902430  MEMB      298             0.0000000000
     34789       298  POPC      H8R           -13.2460573534       45.2568757709       -8.6490973061  MEMB      298             0.0000000000
     34790       298  POPC      H8S           -14.1037166470       43.7102073847       -8.2494777457  MEMB      298             0.0000000000
     34791       298  POPC      C29           -15.4263036821       45.4084101519       -8.9434110100  MEMB      298             0.0000000000
     34792       298  POPC      H91           -16.3609264752       44.8361975660       -9.0385578658  MEMB      298             0.0000000000
     34793       298  POPC      C210          -15.5182376432       46.7309591016       -8.9401630799  MEMB      298             0.0000000000
     34794       298  POPC      H101          -16.5588771112       47.0824907221       -8.9992810188  MEMB      298             0.0000000000
     34795       298  POPC      C211          -14.4575398763       47.7786714640       -8.9492120726  MEMB      298             0.0000000000
     34796       298  POPC      H11R          -14.5519884746       48.3587935662       -9.8920046989  MEMB      298             0.0000000000
     34797       298  POPC      H11S          -13.4745705359       47.3471828087       -9.2354106722  MEMB      298             0.0000000000
     34798       298  POPC      C212          -14.2080665168       48.7764718297       -7.7797418870  MEMB      298             0.0000000000
     34799       298  POPC      H12R          -13.2427254694       49.2786084162       -8.0040110672  MEMB      298             0.0000000000
     34800       298  POPC      H12S          -14.1198727054       48.1366790319       -6.8757464193  MEMB      298             0.0000000000
     34801       298  POPC      C213          -15.3134748262       49.7089719345       -7.4474241370  MEMB      298             0.0000000000
     34802       298  POPC      H13R          -16.2675835684       49.1397655361       -7.4487384719  MEMB      298             0.0000000000
     34803       298  POPC      H13S          -15.3230672193       50.5678649283       -8.1520741992  MEMB      298             0.0000000000
     34804       298  POPC      C214          -15.3113123584       50.3546662933       -6.0822065862  MEMB      298             0.0000000000
     34805       298  POPC      H14R          -15.3762354934       49.5945142458       -5.2745712983  MEMB      298             0.0000000000
     34806       298  POPC      H14S          -16.2310424783       50.9587515532       -5.9289161497  MEMB      298             0.0000000000
     34807       298  POPC      C215          -14.0922582985       51.3029916575       -5.9838829215  MEMB      298             0.0000000000
     34808       298  POPC      H15R          -14.0727952501       51.9888645556       -6.8576797049  MEMB      298             0.0000000000
     34809       298  POPC      H15S          -13.1304418704       50.7469368441       -5.9781148341  MEMB      298             0.0000000000
     34810       298  POPC      C216          -14.0890613522       52.2256449580       -4.8220964644  MEMB      298             0.0000000000
     34811       298  POPC      H16R          -14.9678071751       52.9041412809       -4.8641637044  MEMB      298             0.0000000000
     34812       298  POPC      H16S          -13.1983918125       52.8751488165       -4.9605641058  MEMB      298             0.0000000000
     34813       298  POPC      C217          -14.1824655478       51.4271164497       -3.5611106703  MEMB      298             0.0000000000
     34814       298  POPC      H17R          -13.4147338188       50.6504354741       -3.7652574369  MEMB      298             0.0000000000
     34815       298  POPC      H17S          -15.1524741567       50.8879783571       -3.6134021126  MEMB      298             0.0000000000
     34816       298  POPC      C218          -14.0135787053       52.1150856676       -2.1659055897  MEMB      298             0.0000000000
     34817       298  POPC      H18R          -13.8259851611       51.4743728712       -1.2778660660  MEMB      298             0.0000000000
     34818       298  POPC      H18S          -14.9392527127       52.6959323347       -1.9657435516  MEMB      298             0.0000000000
     34819       298  POPC      H18T          -13.1268307773       52.7719922913       -2.2942521665  MEMB      298             0.0000000000
     34820       298  POPC      C33           -11.7243623202       50.7632749920      -11.1760728165  MEMB      298             0.0000000000
     34821       298  POPC      H3X           -11.4916948603       51.0241973515      -12.2306375848  MEMB      298             0.0000000000
     34822       298  POPC      H3Y           -11.7539278367       49.6626821666      -11.0272704307  MEMB      298             0.0000000000
     34823       298  POPC      C34           -10.6992806593       51.3936953512      -10.1381769417  MEMB      298             0.0000000000
     34824       298  POPC      H4X           -10.8936308172       52.4836832172      -10.0461127753  MEMB      298             0.0000000000
     34825       298  POPC      H4Y            -9.6682054477       51.2103492736      -10.5091084723  MEMB      298             0.0000000000
     34826       298  POPC      C35           -10.6767931904       50.7628703462       -8.8107138212  MEMB      298             0.0000000000
     34827       298  POPC      H5X           -10.3033246985       49.7165704312       -8.8007727731  MEMB      298             0.0000000000
     34828       298  POPC      H5Y           -11.7230399630       50.7802657664       -8.4373701877  MEMB      298             0.0000000000
     34829       298  POPC      C36            -9.8598096331       51.4704629844       -7.7628679352  MEMB      298             0.0000000000
     34830       298  POPC      H6X            -9.9498991938       52.5763699397       -7.8192143897  MEMB      298             0.0000000000
     34831       298  POPC      H6Y            -8.8172627644       51.2515185959       -8.0782729605  MEMB      298             0.0000000000
     34832       298  POPC      C37           -10.1205312684       51.0474128612       -6.3264320851  MEMB      298             0.0000000000
     34833       298  POPC      H7X           -11.0572399837       51.6095340480       -6.1241523875  MEMB      298             0.0000000000
     34834       298  POPC      H7Y            -9.3822683964       51.5139359803       -5.6396684631  MEMB      298             0.0000000000
     34835       298  POPC      C38           -10.2592393339       49.5071319565       -6.1601354340  MEMB      298             0.0000000000
     34836       298  POPC      H8X            -9.3523249570       49.0434531706       -6.6037896908  MEMB      298             0.0000000000
     34837       298  POPC      H8Y           -11.1149232337       49.0399574023       -6.6929333754  MEMB      298             0.0000000000
     34838       298  POPC      C39           -10.2969985431       49.0976244461       -4.6591508165  MEMB      298             0.0000000000
     34839       298  POPC      H9X           -11.1890210672       49.5263665287       -4.1543769138  MEMB      298             0.0000000000
     34840       298  POPC      H9Y            -9.3459762082       49.5122362850       -4.2616909536  MEMB      298             0.0000000000
     34841       298  POPC      C310          -10.2230734476       47.5793949268       -4.5045063154  MEMB      298             0.0000000000
     34842       298  POPC      H10X          -10.1430191229       47.3166475087       -3.4279947960  MEMB      298             0.0000000000
     34843       298  POPC      H10Y           -9.2951230994       47.2375241862       -5.0108200964  MEMB      298             0.0000000000
     34844       298  POPC      C311          -11.4206608429       46.7716730273       -5.2160435502  MEMB      298             0.0000000000
     34845       298  POPC      H11X          -11.1586349290       45.7453903364       -4.8807722046  MEMB      298             0.0000000000
     34846       298  POPC      H11Y          -11.5421133519       46.8073864501       -6.3198075455  MEMB      298             0.0000000000
     34847       298  POPC      C312          -12.7917778895       47.0002882275       -4.5101703549  MEMB      298             0.0000000000
     34848       298  POPC      H12X          -13.1214500060       48.0052648424       -4.8502573337  MEMB      298             0.0000000000
     34849       298  POPC      H12Y          -12.6057103896       47.0618779860       -3.4165951248  MEMB      298             0.0000000000
     34850       298  POPC      C313          -13.8989422834       45.9920047704       -4.8367000759  MEMB      298             0.0000000000
     34851       298  POPC      H13X          -13.5866940895       44.9428935592       -4.6464688366  MEMB      298             0.0000000000
     34852       298  POPC      H13Y          -14.0527868535       46.1462662395       -5.9261286691  MEMB      298             0.0000000000
     34853       298  POPC      C314          -15.2680991945       46.1749305723       -4.0468563542  MEMB      298             0.0000000000
     34854       298  POPC      H14X          -15.9266400866       45.4289194403       -4.5409332937  MEMB      298             0.0000000000
     34855       298  POPC      H14Y          -15.6102300674       47.2058733244       -4.2801471984  MEMB      298             0.0000000000
     34856       298  POPC      C315          -15.2420279953       46.0398251133       -2.5750375322  MEMB      298             0.0000000000
     34857       298  POPC      H15X          -14.5781756331       46.8020149107       -2.1138582026  MEMB      298             0.0000000000
     34858       298  POPC      H15Y          -14.7600970133       45.0602050725       -2.3691061630  MEMB      298             0.0000000000
     34859       298  POPC      C316          -16.6169412837       46.1846642533       -1.8792350401  MEMB      298             0.0000000000
     34860       298  POPC      H16X          -16.4297266378       45.9083576828       -0.8195533691  MEMB      298             0.0000000000
     34861       298  POPC      H16Y          -17.2905732961       45.4235461072       -2.3278329752  MEMB      298             0.0000000000
     34862       298  POPC      H16Z          -17.1677621179       47.1406802919       -2.0094310202  MEMB      298             0.0000000000
     34863       299  POPC      N             -19.0294620028       40.7453984891      -20.8781061774  MEMB      299             0.0000000000
     34864       299  POPC      C12           -18.9449672914       40.3635814882      -19.4308671747  MEMB      299             0.0000000000
     34865       299  POPC      H12A          -17.9211002265       40.0464860228      -19.2984024255  MEMB      299             0.0000000000
     34866       299  POPC      H12B          -19.5961345810       39.5242388038      -19.2362258066  MEMB      299             0.0000000000
     34867       299  POPC      C13           -20.3565008848       41.2216056190      -21.2990572992  MEMB      299             0.0000000000
     34868       299  POPC      H13A          -20.3729237596       41.5706949037      -22.3209511630  MEMB      299             0.0000000000
     34869       299  POPC      H13B          -21.0051574854       40.3592707392      -21.3440366974  MEMB      299             0.0000000000
     34870       299  POPC      H13C          -20.7586914542       41.9382258199      -20.5982733506  MEMB      299             0.0000000000
     34871       299  POPC      C14           -17.9558861769       41.7803118907      -21.1446953769  MEMB      299             0.0000000000
     34872       299  POPC      H14A          -16.9539485149       41.4107684587      -20.9835785244  MEMB      299             0.0000000000
     34873       299  POPC      H14B          -17.9091419383       42.1330555383      -22.1643947274  MEMB      299             0.0000000000
     34874       299  POPC      H14C          -18.1050122258       42.6881265731      -20.5789799595  MEMB      299             0.0000000000
     34875       299  POPC      C15           -18.7300677564       39.5473227907      -21.7324376738  MEMB      299             0.0000000000
     34876       299  POPC      H15A          -19.0903759867       39.8229118610      -22.7125544038  MEMB      299             0.0000000000
     34877       299  POPC      H15B          -19.2726479890       38.6632543042      -21.4317225098  MEMB      299             0.0000000000
     34878       299  POPC      H15C          -17.6688185892       39.3516167363      -21.6894367107  MEMB      299             0.0000000000
     34879       299  POPC      C11           -19.2220485290       41.4782891682      -18.3774847751  MEMB      299             0.0000000000
     34880       299  POPC      H11A          -18.5403279894       42.3280957883      -18.5952158139  MEMB      299             0.0000000000
     34881       299  POPC      H11B          -18.8968244054       41.0005959306      -17.4286120920  MEMB      299             0.0000000000
     34882       299  POPC      P             -21.1891489963       42.7341336337      -17.1788400715  MEMB      299             0.0000000000
     34883       299  POPC      O13           -22.6622574926       42.5174871733      -17.1495789572  MEMB      299             0.0000000000
     34884       299  POPC      O14           -20.6525899859       44.0466285169      -17.5578422416  MEMB      299             0.0000000000
     34885       299  POPC      O12           -20.5986620016       41.8133168440      -18.2830252762  MEMB      299             0.0000000000
     34886       299  POPC      O11           -20.4145278808       42.0791156869      -15.9680649719  MEMB      299             0.0000000000
     34887       299  POPC      C1            -20.9097891877       40.8442142674      -15.5530802223  MEMB      299             0.0000000000
     34888       299  POPC      HA            -20.0293656720       40.2519441579      -15.2238515400  MEMB      299             0.0000000000
     34889       299  POPC      HB            -21.4648140797       40.2603109810      -16.3181458787  MEMB      299             0.0000000000
     34890       299  POPC      C2            -21.9264628563       41.1319952905      -14.3912884070  MEMB      299             0.0000000000
     34891       299  POPC      HS            -22.7339567698       41.7725155671      -14.8060271741  MEMB      299             0.0000000000
     34892       299  POPC      O21           -21.2787132666       41.7479820140      -13.2593004195  MEMB      299             0.0000000000
     34893       299  POPC      C21           -21.7997755452       42.8010613404      -12.7422298528  MEMB      299             0.0000000000
     34894       299  POPC      O22           -22.8459975823       43.3337231437      -13.1245560866  MEMB      299             0.0000000000
     34895       299  POPC      C22           -20.9599536167       43.4019217881      -11.5766125614  MEMB      299             0.0000000000
     34896       299  POPC      H2R           -21.5236826353       44.1402041722      -10.9671294108  MEMB      299             0.0000000000
     34897       299  POPC      H2S           -20.1161719409       43.9411736943      -12.0578205566  MEMB      299             0.0000000000
     34898       299  POPC      C3            -22.6880062932       39.8524577918      -13.9332214789  MEMB      299             0.0000000000
     34899       299  POPC      HX            -23.3129506561       39.3786240779      -14.7201442287  MEMB      299             0.0000000000
     34900       299  POPC      HY            -23.4395942011       40.1363643280      -13.1658667182  MEMB      299             0.0000000000
     34901       299  POPC      O31           -21.7555836724       38.8125900817      -13.4616691105  MEMB      299             0.0000000000
     34902       299  POPC      C31           -21.5639009508       38.6022595593      -12.1727390710  MEMB      299             0.0000000000
     34903       299  POPC      O32           -22.2521527978       39.0189916986      -11.2725616052  MEMB      299             0.0000000000
     34904       299  POPC      C32           -20.4641446425       37.6875310301      -11.9513971444  MEMB      299             0.0000000000
     34905       299  POPC      H2X           -19.7488139989       37.5334018912      -12.7873800337  MEMB      299             0.0000000000
     34906       299  POPC      H2Y           -20.8789467710       36.6909031236      -11.6887327967  MEMB      299             0.0000000000
     34907       299  POPC      C23           -20.6810274110       42.1530919470      -10.6334277414  MEMB      299             0.0000000000
     34908       299  POPC      H3R           -19.8631902968       42.4972572501       -9.9648367631  MEMB      299             0.0000000000
     34909       299  POPC      H3S           -20.3281873273       41.2769272388      -11.2183723824  MEMB      299             0.0000000000
     34910       299  POPC      C24           -21.8038382523       41.7469118162       -9.6414390891  MEMB      299             0.0000000000
     34911       299  POPC      H4R           -21.7640446914       40.6475957870       -9.4857413647  MEMB      299             0.0000000000
     34912       299  POPC      H4S           -22.7780672923       42.0091532050      -10.1066564804  MEMB      299             0.0000000000
     34913       299  POPC      C25           -21.4828960053       42.4227569709       -8.3164553025  MEMB      299             0.0000000000
     34914       299  POPC      H5R           -20.9782345200       43.3939471283       -8.5073151883  MEMB      299             0.0000000000
     34915       299  POPC      H5S           -20.6394586930       41.8021097083       -7.9453333083  MEMB      299             0.0000000000
     34916       299  POPC      C26           -22.6754591029       42.5593719150       -7.3322513092  MEMB      299             0.0000000000
     34917       299  POPC      H6R           -23.4961025672       43.1156589028       -7.8336604324  MEMB      299             0.0000000000
     34918       299  POPC      H6S           -22.3481721376       43.0848875741       -6.4097345773  MEMB      299             0.0000000000
     34919       299  POPC      C27           -23.1648409913       41.1837996775       -6.7457526733  MEMB      299             0.0000000000
     34920       299  POPC      H7R           -23.8381655391       40.5392933880       -7.3503739024  MEMB      299             0.0000000000
     34921       299  POPC      H7S           -23.9073085586       41.4755976619       -5.9725024265  MEMB      299             0.0000000000
     34922       299  POPC      C28           -22.0176681506       40.3913391505       -6.1572298683  MEMB      299             0.0000000000
     34923       299  POPC      H8R           -21.4186940146       41.2222794281       -5.7270093773  MEMB      299             0.0000000000
     34924       299  POPC      H8S           -21.4085006190       39.8459293302       -6.9094019173  MEMB      299             0.0000000000
     34925       299  POPC      C29           -22.3597568405       39.4071771986       -5.0850632384  MEMB      299             0.0000000000
     34926       299  POPC      H91           -22.5964375833       38.3974467745       -5.4517054471  MEMB      299             0.0000000000
     34927       299  POPC      C210          -22.5619270297       39.5223752194       -3.7463032240  MEMB      299             0.0000000000
     34928       299  POPC      H101          -22.8374811708       38.6666439348       -3.1124304438  MEMB      299             0.0000000000
     34929       299  POPC      C211          -22.4308959971       40.7957637103       -2.9295073598  MEMB      299             0.0000000000
     34930       299  POPC      H11R          -23.4402026369       41.2475468271       -2.8222066525  MEMB      299             0.0000000000
     34931       299  POPC      H11S          -21.7797085180       41.5108967658       -3.4761885773  MEMB      299             0.0000000000
     34932       299  POPC      C212          -21.7752444973       40.5656389820       -1.5039711644  MEMB      299             0.0000000000
     34933       299  POPC      H12R          -20.7895132729       40.0572047417       -1.5683891320  MEMB      299             0.0000000000
     34934       299  POPC      H12S          -22.3004008836       39.8103302720       -0.8810420613  MEMB      299             0.0000000000
     34935       299  POPC      C213          -21.7801673972       41.8510908159       -0.7244614298  MEMB      299             0.0000000000
     34936       299  POPC      H13R          -22.7694083385       42.3325924899       -0.8789937478  MEMB      299             0.0000000000
     34937       299  POPC      H13S          -21.0727713103       42.5200887792       -1.2595818702  MEMB      299             0.0000000000
     34938       299  POPC      C214          -21.2656812697       41.7720564375        0.7396408830  MEMB      299             0.0000000000
     34939       299  POPC      H14R          -21.8797288918       41.0495486969        1.3186465679  MEMB      299             0.0000000000
     34940       299  POPC      H14S          -21.3808995755       42.7855578620        1.1799369816  MEMB      299             0.0000000000
     34941       299  POPC      C215          -19.7652668717       41.4047159691        0.9074946887  MEMB      299             0.0000000000
     34942       299  POPC      H15R          -19.5058343033       42.4614434015        1.1318677994  MEMB      299             0.0000000000
     34943       299  POPC      H15S          -19.3439137917       41.0991332568       -0.0740358441  MEMB      299             0.0000000000
     34944       299  POPC      C216          -19.3405108096       40.3709547100        1.9133719522  MEMB      299             0.0000000000
     34945       299  POPC      H16R          -19.6385145378       39.3323256317        1.6549850261  MEMB      299             0.0000000000
     34946       299  POPC      H16S          -19.6767950473       40.6244583384        2.9414629793  MEMB      299             0.0000000000
     34947       299  POPC      C217          -17.7901985156       40.3851224983        2.0908781975  MEMB      299             0.0000000000
     34948       299  POPC      H17R          -17.7104356325       39.7526812412        3.0008101952  MEMB      299             0.0000000000
     34949       299  POPC      H17S          -17.4827306982       41.4313319652        2.3035532294  MEMB      299             0.0000000000
     34950       299  POPC      C218          -16.9786595721       39.8230378904        0.8824575047  MEMB      299             0.0000000000
     34951       299  POPC      H18R          -17.0852015295       40.4952288605        0.0043179864  MEMB      299             0.0000000000
     34952       299  POPC      H18S          -17.2312758548       38.7607345657        0.6774753848  MEMB      299             0.0000000000
     34953       299  POPC      H18T          -15.9208164769       39.9667723466        1.1900749205  MEMB      299             0.0000000000
     34954       299  POPC      C33           -19.6363949056       38.1000557653      -10.7353887862  MEMB      299             0.0000000000
     34955       299  POPC      H3X           -20.3773737326       38.1374801989       -9.9084239307  MEMB      299             0.0000000000
     34956       299  POPC      H3Y           -19.1496341005       39.0985394283      -10.7557695552  MEMB      299             0.0000000000
     34957       299  POPC      C34           -18.5474058585       37.0646612687      -10.3179551302  MEMB      299             0.0000000000
     34958       299  POPC      H4X           -17.6649520304       37.0365794690      -10.9923499536  MEMB      299             0.0000000000
     34959       299  POPC      H4Y           -19.0594150664       36.0794873715      -10.2779570767  MEMB      299             0.0000000000
     34960       299  POPC      C35           -17.8661186626       37.4079226051       -8.9640591127  MEMB      299             0.0000000000
     34961       299  POPC      H5X           -17.4227337619       38.4154547411       -9.1144245443  MEMB      299             0.0000000000
     34962       299  POPC      H5Y           -17.1079131430       36.6029591249       -8.8569167364  MEMB      299             0.0000000000
     34963       299  POPC      C36           -18.6989247750       37.4527543960       -7.7065201705  MEMB      299             0.0000000000
     34964       299  POPC      H6X           -19.1527180812       36.4582247560       -7.5082693518  MEMB      299             0.0000000000
     34965       299  POPC      H6Y           -19.5139722643       38.1677549205       -7.9489924750  MEMB      299             0.0000000000
     34966       299  POPC      C37           -17.9971738495       37.9072381147       -6.3964652825  MEMB      299             0.0000000000
     34967       299  POPC      H7X           -17.5197102563       38.8699712967       -6.6784131081  MEMB      299             0.0000000000
     34968       299  POPC      H7Y           -17.2333833782       37.1941553952       -6.0190290846  MEMB      299             0.0000000000
     34969       299  POPC      C38           -18.9821580435       38.0868078524       -5.2318646405  MEMB      299             0.0000000000
     34970       299  POPC      H8X           -19.6074295181       37.1797041334       -5.0886202195  MEMB      299             0.0000000000
     34971       299  POPC      H8Y           -19.6126305226       38.9633849140       -5.4934720446  MEMB      299             0.0000000000
     34972       299  POPC      C39           -18.3055455570       38.3983145283       -3.8453224652  MEMB      299             0.0000000000
     34973       299  POPC      H9X           -17.7923078595       37.4448414294       -3.5967324465  MEMB      299             0.0000000000
     34974       299  POPC      H9Y           -19.1296580333       38.6358254087       -3.1391012060  MEMB      299             0.0000000000
     34975       299  POPC      C310          -17.2686413353       39.5538898549       -3.9016345306  MEMB      299             0.0000000000
     34976       299  POPC      H10X          -16.4059814694       39.2620814501       -4.5380208569  MEMB      299             0.0000000000
     34977       299  POPC      H10Y          -16.8535214397       39.6875142995       -2.8798022889  MEMB      299             0.0000000000
     34978       299  POPC      C311          -17.7032284779       40.9045069282       -4.3870871017  MEMB      299             0.0000000000
     34979       299  POPC      H11X          -17.8290937053       40.8624205702       -5.4901323557  MEMB      299             0.0000000000
     34980       299  POPC      H11Y          -16.7912365369       41.5046395785       -4.1810963699  MEMB      299             0.0000000000
     34981       299  POPC      C312          -19.0163812566       41.3579064739       -3.7325868929  MEMB      299             0.0000000000
     34982       299  POPC      H12X          -19.1826168465       41.2380131292       -2.6406557073  MEMB      299             0.0000000000
     34983       299  POPC      H12Y          -19.7798712936       40.6545424694       -4.1284189788  MEMB      299             0.0000000000
     34984       299  POPC      C313          -19.3633989261       42.7692107875       -4.0700440180  MEMB      299             0.0000000000
     34985       299  POPC      H13X          -20.1851298087       43.1347566054       -3.4177747993  MEMB      299             0.0000000000
     34986       299  POPC      H13Y          -19.8719382816       42.9603392415       -5.0391566075  MEMB      299             0.0000000000
     34987       299  POPC      C314          -18.2119865868       43.7898252978       -3.9631806192  MEMB      299             0.0000000000
     34988       299  POPC      H14X          -18.7565834765       44.7578269545       -3.9365710155  MEMB      299             0.0000000000
     34989       299  POPC      H14Y          -17.4615213809       43.7480180650       -4.7813337975  MEMB      299             0.0000000000
     34990       299  POPC      C315          -17.3555275220       43.8556614587       -2.6538942014  MEMB      299             0.0000000000
     34991       299  POPC      H15X          -16.4572658566       44.4968419650       -2.7817002864  MEMB      299             0.0000000000
     34992       299  POPC      H15Y          -16.9607370383       42.8353866691       -2.4602425372  MEMB      299             0.0000000000
     34993       299  POPC      C316          -18.1460965720       44.2721260025       -1.3332957612  MEMB      299             0.0000000000
     34994       299  POPC      H16X          -19.1910371543       43.8950763336       -1.3173698529  MEMB      299             0.0000000000
     34995       299  POPC      H16Y          -18.1948408274       45.3820369880       -1.3398234620  MEMB      299             0.0000000000
     34996       299  POPC      H16Z          -17.6543066346       43.9974542667       -0.3756847248  MEMB      299             0.0000000000
     34997       300  POPE      N             -45.5809895286      -19.2995566239      -22.2795647871  MEMB      300             0.0000000000
     34998       300  POPE      HN1           -46.0297910014      -18.4465412949      -22.6701309186  MEMB      300             0.0000000000
     34999       300  POPE      HN2           -44.9105113458      -19.6111926904      -23.0109618110  MEMB      300             0.0000000000
     35000       300  POPE      HN3           -46.3375195921      -20.0053486289      -22.1741135623  MEMB      300             0.0000000000
     35001       300  POPE      C12           -44.8383439443      -18.9704582048      -21.0395351629  MEMB      300             0.0000000000
     35002       300  POPE      H12A          -45.4834748162      -18.3640004978      -20.3684641882  MEMB      300             0.0000000000
     35003       300  POPE      H12B          -43.8267699249      -18.5436719830      -21.2095130638  MEMB      300             0.0000000000
     35004       300  POPE      C11           -44.6006183464      -20.3195819714      -20.2780782218  MEMB      300             0.0000000000
     35005       300  POPE      H11A          -43.8708956970      -20.9574282901      -20.8211969244  MEMB      300             0.0000000000
     35006       300  POPE      H11B          -45.5696394619      -20.8469946174      -20.1471010812  MEMB      300             0.0000000000
     35007       300  POPE      P             -44.8885478268      -19.6569589770      -17.6676428282  MEMB      300             0.0000000000
     35008       300  POPE      O13           -46.2735884538      -19.3298486729      -17.9782730507  MEMB      300             0.0000000000
     35009       300  POPE      O14           -44.1707491498      -18.5138965407      -17.0280174958  MEMB      300             0.0000000000
     35010       300  POPE      O11           -44.8753727209      -20.9760918786      -16.7960030405  MEMB      300             0.0000000000
     35011       300  POPE      O12           -44.0643564192      -20.0702847419      -18.9328854123  MEMB      300             0.0000000000
     35012       300  POPE      C1            -45.7374358961      -22.0684818750      -17.1322446308  MEMB      300             0.0000000000
     35013       300  POPE      HA            -45.1969705851      -22.8134029745      -17.7545877937  MEMB      300             0.0000000000
     35014       300  POPE      HB            -46.6010805916      -21.7768751592      -17.7673858429  MEMB      300             0.0000000000
     35015       300  POPE      C2            -46.3492704150      -22.7520217212      -15.8766100037  MEMB      300             0.0000000000
     35016       300  POPE      HS            -47.1439032218      -23.4076435822      -16.2925904599  MEMB      300             0.0000000000
     35017       300  POPE      O21           -46.7559988150      -21.8476519581      -14.8380077797  MEMB      300             0.0000000000
     35018       300  POPE      C21           -47.8595502834      -21.2439878838      -15.1071126517  MEMB      300             0.0000000000
     35019       300  POPE      O22           -48.7196415811      -21.5517143724      -15.9289994321  MEMB      300             0.0000000000
     35020       300  POPE      C22           -48.0566879941      -20.2883260298      -13.8537657474  MEMB      300             0.0000000000
     35021       300  POPE      H2R           -48.8558404931      -19.5354944439      -14.0238259903  MEMB      300             0.0000000000
     35022       300  POPE      H2S           -47.1261311444      -19.6876721036      -13.7665877583  MEMB      300             0.0000000000
     35023       300  POPE      C3            -45.2313446265      -23.6657444258      -15.2650501087  MEMB      300             0.0000000000
     35024       300  POPE      HX            -44.3315786655      -23.0717341211      -14.9969194930  MEMB      300             0.0000000000
     35025       300  POPE      HY            -44.9977324934      -24.5718005627      -15.8640567446  MEMB      300             0.0000000000
     35026       300  POPE      O31           -45.7708549864      -24.1556620019      -14.0105246538  MEMB      300             0.0000000000
     35027       300  POPE      C31           -44.9659666423      -24.8078133490      -13.1728254593  MEMB      300             0.0000000000
     35028       300  POPE      O32           -43.7881289648      -25.0052454572      -13.3239377559  MEMB      300             0.0000000000
     35029       300  POPE      C32           -45.8771661519      -25.4750468923      -12.1164107252  MEMB      300             0.0000000000
     35030       300  POPE      H2X           -45.9854886732      -26.5391480410      -12.4168692071  MEMB      300             0.0000000000
     35031       300  POPE      H2Y           -46.8697507675      -24.9760377225      -12.1071269919  MEMB      300             0.0000000000
     35032       300  POPE      C23           -48.3728684806      -21.1681376445      -12.6076332822  MEMB      300             0.0000000000
     35033       300  POPE      H3R           -47.5640018701      -21.8890185595      -12.3618963599  MEMB      300             0.0000000000
     35034       300  POPE      H3S           -49.3728518954      -21.6162696024      -12.7907502708  MEMB      300             0.0000000000
     35035       300  POPE      C24           -48.4078302423      -20.2260924529      -11.4101394516  MEMB      300             0.0000000000
     35036       300  POPE      H4R           -48.6789503335      -20.7993090732      -10.4978690303  MEMB      300             0.0000000000
     35037       300  POPE      H4S           -49.2394500087      -19.5309186547      -11.6539905306  MEMB      300             0.0000000000
     35038       300  POPE      C25           -47.0454794328      -19.5473327745      -11.1039167931  MEMB      300             0.0000000000
     35039       300  POPE      H5R           -46.5693909403      -19.0016041582      -11.9464375800  MEMB      300             0.0000000000
     35040       300  POPE      H5S           -46.3092319109      -20.3372367382      -10.8425507328  MEMB      300             0.0000000000
     35041       300  POPE      C26           -47.1039022962      -18.5725479494       -9.9164487142  MEMB      300             0.0000000000
     35042       300  POPE      H6R           -47.8359208841      -17.7642952862      -10.1290457779  MEMB      300             0.0000000000
     35043       300  POPE      H6S           -46.0965231239      -18.1153206140       -9.8142154820  MEMB      300             0.0000000000
     35044       300  POPE      C27           -47.4109482413      -19.1466284265       -8.5309633978  MEMB      300             0.0000000000
     35045       300  POPE      H7R           -46.8039295644      -20.0314114259       -8.2428512990  MEMB      300             0.0000000000
     35046       300  POPE      H7S           -48.4647494265      -19.4962706151       -8.4912849826  MEMB      300             0.0000000000
     35047       300  POPE      C28           -47.3773990834      -18.1492744333       -7.4141525434  MEMB      300             0.0000000000
     35048       300  POPE      H8R           -48.1190327295      -17.3517750955       -7.6339161657  MEMB      300             0.0000000000
     35049       300  POPE      H8S           -46.3616604287      -17.7264452754       -7.2598440329  MEMB      300             0.0000000000
     35050       300  POPE      C29           -47.8988984261      -18.7612617938       -6.1600936643  MEMB      300             0.0000000000
     35051       300  POPE      H91           -48.9651299949      -18.9875434527       -6.3082384555  MEMB      300             0.0000000000
     35052       300  POPE      C210          -47.3520860821      -19.2410836710       -5.0273155796  MEMB      300             0.0000000000
     35053       300  POPE      H101          -48.1224356192      -19.4983699307       -4.2854497577  MEMB      300             0.0000000000
     35054       300  POPE      C211          -45.8954660078      -19.2100751210       -4.6678216403  MEMB      300             0.0000000000
     35055       300  POPE      H11R          -45.2988652992      -18.8769856499       -5.5438584878  MEMB      300             0.0000000000
     35056       300  POPE      H11S          -45.5255014221      -20.1674318962       -4.2424802316  MEMB      300             0.0000000000
     35057       300  POPE      C212          -45.5387170566      -18.1408265315       -3.6334864563  MEMB      300             0.0000000000
     35058       300  POPE      H12R          -46.0216221063      -17.1882272260       -3.9395559177  MEMB      300             0.0000000000
     35059       300  POPE      H12S          -44.4390803893      -18.0583240086       -3.4981591012  MEMB      300             0.0000000000
     35060       300  POPE      C213          -46.1974293594      -18.5153076428       -2.3235576132  MEMB      300             0.0000000000
     35061       300  POPE      H13R          -45.8401498612      -19.5051964012       -1.9674770005  MEMB      300             0.0000000000
     35062       300  POPE      H13S          -47.3029509779      -18.4277581878       -2.3904744198  MEMB      300             0.0000000000
     35063       300  POPE      C214          -45.7925256458      -17.5774897065       -1.0777439649  MEMB      300             0.0000000000
     35064       300  POPE      H14R          -46.4378323093      -18.0008005907       -0.2785511141  MEMB      300             0.0000000000
     35065       300  POPE      H14S          -46.2038143115      -16.5609681575       -1.2562011712  MEMB      300             0.0000000000
     35066       300  POPE      C215          -44.3624343084      -17.5876175574       -0.4605040553  MEMB      300             0.0000000000
     35067       300  POPE      H15R          -44.0286057201      -16.5479224225       -0.2557763384  MEMB      300             0.0000000000
     35068       300  POPE      H15S          -43.7267875145      -18.0311580394       -1.2564606478  MEMB      300             0.0000000000
     35069       300  POPE      C216          -44.3106755918      -18.3465692340        0.8300345779  MEMB      300             0.0000000000
     35070       300  POPE      H16R          -44.5958996316      -19.3850679664        0.5571077741  MEMB      300             0.0000000000
     35071       300  POPE      H16S          -45.1732562446      -18.0013656033        1.4392221033  MEMB      300             0.0000000000
     35072       300  POPE      C217          -42.9748535799      -18.3172199425        1.5234971778  MEMB      300             0.0000000000
     35073       300  POPE      H17R          -42.8004617635      -17.2464768401        1.7631176803  MEMB      300             0.0000000000
     35074       300  POPE      H17S          -42.1810641002      -18.5889465223        0.7952222191  MEMB      300             0.0000000000
     35075       300  POPE      C218          -42.8208480105      -19.0270011247        2.8525201705  MEMB      300             0.0000000000
     35076       300  POPE      H18R          -43.0589967077      -20.0883086133        2.6261739630  MEMB      300             0.0000000000
     35077       300  POPE      H18S          -43.6081354590      -18.5961237697        3.5073821005  MEMB      300             0.0000000000
     35078       300  POPE      H18T          -41.8457300477      -19.0382925093        3.3848158768  MEMB      300             0.0000000000
     35079       300  POPE      C33           -45.2812287061      -25.4223687923      -10.6802200413  MEMB      300             0.0000000000
     35080       300  POPE      H3X           -44.2428930448      -25.7855187531      -10.8361111723  MEMB      300             0.0000000000
     35081       300  POPE      H3Y           -45.9081467176      -26.0664679963      -10.0272027271  MEMB      300             0.0000000000
     35082       300  POPE      C34           -45.1348626889      -23.9426070231      -10.0781058391  MEMB      300             0.0000000000
     35083       300  POPE      H4X           -45.7338928544      -23.7803545473       -9.1566083618  MEMB      300             0.0000000000
     35084       300  POPE      H4Y           -45.5031382628      -23.2657299133      -10.8784386646  MEMB      300             0.0000000000
     35085       300  POPE      C35           -43.6411703047      -23.5846141830       -9.8421416020  MEMB      300             0.0000000000
     35086       300  POPE      H5X           -43.1362627830      -23.5761413026      -10.8317462610  MEMB      300             0.0000000000
     35087       300  POPE      H5Y           -43.2374197842      -24.4339770303       -9.2506274447  MEMB      300             0.0000000000
     35088       300  POPE      C36           -43.5558371755      -22.1890048178       -9.1499305797  MEMB      300             0.0000000000
     35089       300  POPE      H6X           -44.1999072928      -22.3462156444       -8.2584267379  MEMB      300             0.0000000000
     35090       300  POPE      H6Y           -44.0455250251      -21.4482970754       -9.8176726051  MEMB      300             0.0000000000
     35091       300  POPE      C37           -42.1518508368      -21.7334518420       -8.7486994242  MEMB      300             0.0000000000
     35092       300  POPE      H7X           -41.9822043884      -20.6440061090       -8.6121377843  MEMB      300             0.0000000000
     35093       300  POPE      H7Y           -41.4614409150      -21.9639727654       -9.5880540013  MEMB      300             0.0000000000
     35094       300  POPE      C38           -41.5639699072      -22.4784393106       -7.5088051921  MEMB      300             0.0000000000
     35095       300  POPE      H8X           -40.4576867077      -22.4523289082       -7.6076819225  MEMB      300             0.0000000000
     35096       300  POPE      H8Y           -41.9479959853      -23.5197172701       -7.5596487708  MEMB      300             0.0000000000
     35097       300  POPE      C39           -42.0050154928      -21.8278518505       -6.1888200442  MEMB      300             0.0000000000
     35098       300  POPE      H9X           -43.0784968723      -21.5761690198       -6.0523850389  MEMB      300             0.0000000000
     35099       300  POPE      H9Y           -41.5395163790      -20.8190777249       -6.1913119487  MEMB      300             0.0000000000
     35100       300  POPE      C310          -41.4994175205      -22.5030266949       -4.9341993723  MEMB      300             0.0000000000
     35101       300  POPE      H10X          -41.3033358587      -21.7776043308       -4.1158861481  MEMB      300             0.0000000000
     35102       300  POPE      H10Y          -40.5548533842      -23.0199174377       -5.2079572121  MEMB      300             0.0000000000
     35103       300  POPE      C311          -42.5368727763      -23.4051625277       -4.2901011390  MEMB      300             0.0000000000
     35104       300  POPE      H11X          -42.5525440474      -24.3059380062       -4.9402383863  MEMB      300             0.0000000000
     35105       300  POPE      H11Y          -43.5997274439      -23.1174876487       -4.4381008184  MEMB      300             0.0000000000
     35106       300  POPE      C312          -42.3065377114      -23.8284252508       -2.8699723735  MEMB      300             0.0000000000
     35107       300  POPE      H12X          -43.0766006562      -24.5995060453       -2.6537360908  MEMB      300             0.0000000000
     35108       300  POPE      H12Y          -42.3130910821      -22.9738887073       -2.1600109682  MEMB      300             0.0000000000
     35109       300  POPE      C313          -40.9083652123      -24.4921345834       -2.6226783994  MEMB      300             0.0000000000
     35110       300  POPE      H13X          -40.0450038760      -23.8111583328       -2.7814225276  MEMB      300             0.0000000000
     35111       300  POPE      H13Y          -40.9339866104      -25.1989395916       -3.4794702643  MEMB      300             0.0000000000
     35112       300  POPE      C314          -40.8507324677      -25.0580846029       -1.1319286151  MEMB      300             0.0000000000
     35113       300  POPE      H14X          -40.0473415723      -25.7974301210       -0.9263753424  MEMB      300             0.0000000000
     35114       300  POPE      H14Y          -41.8199178381      -25.5594049336       -0.9229348983  MEMB      300             0.0000000000
     35115       300  POPE      C315          -40.7470936557      -23.9890026959        0.0809472298  MEMB      300             0.0000000000
     35116       300  POPE      H15X          -41.2543250626      -24.3879611005        0.9853090426  MEMB      300             0.0000000000
     35117       300  POPE      H15Y          -41.3704729917      -23.1166448891       -0.2101034226  MEMB      300             0.0000000000
     35118       300  POPE      C316          -39.3355362412      -23.7256621782        0.4661542146  MEMB      300             0.0000000000
     35119       300  POPE      H16X          -38.7253125915      -23.5557260074       -0.4465716726  MEMB      300             0.0000000000
     35120       300  POPE      H16Y          -38.8321315760      -24.5898776179        0.9499262001  MEMB      300             0.0000000000
     35121       300  POPE      H16Z          -39.1548210394      -22.8095796913        1.0681968294  MEMB      300             0.0000000000
     35122       301  POPE      N              39.7851471786       35.0044392017      -18.7198247229  MEMB      301             0.0000000000
     35123       301  POPE      HN1            40.6326002523       35.4939331836      -19.0717039163  MEMB      301             0.0000000000
     35124       301  POPE      HN2            40.0904165219       34.0303809732      -18.5207744258  MEMB      301             0.0000000000
     35125       301  POPE      HN3            39.1449134606       34.9278331456      -19.5358102762  MEMB      301             0.0000000000
     35126       301  POPE      C12            39.1571556890       35.5996807521      -17.4626881100  MEMB      301             0.0000000000
     35127       301  POPE      H12A           39.8411786765       35.3790371010      -16.6154866686  MEMB      301             0.0000000000
     35128       301  POPE      H12B           38.1428170320       35.2368666897      -17.1910190590  MEMB      301             0.0000000000
     35129       301  POPE      C11            39.1070427629       37.1799990485      -17.4970011901  MEMB      301             0.0000000000
     35130       301  POPE      H11A           40.0669776520       37.7139845977      -17.6634506457  MEMB      301             0.0000000000
     35131       301  POPE      H11B           38.7614565816       37.6292066088      -16.5414365829  MEMB      301             0.0000000000
     35132       301  POPE      P              38.5388863646       38.2603112193      -19.7446420466  MEMB      301             0.0000000000
     35133       301  POPE      O13            37.3771988164       38.5236931997      -20.6402015103  MEMB      301             0.0000000000
     35134       301  POPE      O14            39.7018116169       37.5543541887      -20.3538983629  MEMB      301             0.0000000000
     35135       301  POPE      O11            39.0994827654       39.5748453249      -19.1707825622  MEMB      301             0.0000000000
     35136       301  POPE      O12            38.0388700192       37.4545786506      -18.4109614920  MEMB      301             0.0000000000
     35137       301  POPE      C1             38.4332060462       40.7747853776      -18.8438524509  MEMB      301             0.0000000000
     35138       301  POPE      HA             37.4141704742       40.8180606817      -19.2843233685  MEMB      301             0.0000000000
     35139       301  POPE      HB             39.1004952667       41.6040595554      -19.1622084996  MEMB      301             0.0000000000
     35140       301  POPE      C2             38.4080204698       40.9560147562      -17.2411927879  MEMB      301             0.0000000000
     35141       301  POPE      HS             38.5747353679       42.0304061683      -17.0126971807  MEMB      301             0.0000000000
     35142       301  POPE      O21            39.4719234713       40.1827072101      -16.7189361089  MEMB      301             0.0000000000
     35143       301  POPE      C21            40.6913892007       40.7459242466      -16.6716607805  MEMB      301             0.0000000000
     35144       301  POPE      O22            40.9312576134       41.8557808897      -17.1276143899  MEMB      301             0.0000000000
     35145       301  POPE      C22            41.7978157643       39.8045765518      -16.2155046288  MEMB      301             0.0000000000
     35146       301  POPE      H2R            42.7448626455       40.0037489731      -16.7611727164  MEMB      301             0.0000000000
     35147       301  POPE      H2S            41.3995126126       38.7680294078      -16.1802125049  MEMB      301             0.0000000000
     35148       301  POPE      C3             36.9801452818       40.4832055657      -16.6918230634  MEMB      301             0.0000000000
     35149       301  POPE      HX             36.9368475733       39.3755730521      -16.6170130186  MEMB      301             0.0000000000
     35150       301  POPE      HY             36.1538120995       40.7824722232      -17.3714802035  MEMB      301             0.0000000000
     35151       301  POPE      O31            36.7172452458       41.1779900473      -15.4549710061  MEMB      301             0.0000000000
     35152       301  POPE      C31            37.2713477220       40.5685972550      -14.4093895170  MEMB      301             0.0000000000
     35153       301  POPE      O32            37.8420308477       39.4742650251      -14.4989805673  MEMB      301             0.0000000000
     35154       301  POPE      C32            37.0499282524       41.3874189426      -13.1479815473  MEMB      301             0.0000000000
     35155       301  POPE      H2X            36.1451828497       42.0319228328      -13.1672612558  MEMB      301             0.0000000000
     35156       301  POPE      H2Y            37.8555257612       42.1419273267      -13.0212911307  MEMB      301             0.0000000000
     35157       301  POPE      C23            42.1107454264       40.1522693158      -14.7155046609  MEMB      301             0.0000000000
     35158       301  POPE      H3R            42.2071371363       41.2553968032      -14.6252862613  MEMB      301             0.0000000000
     35159       301  POPE      H3S            43.0847773675       39.6375307097      -14.5718837105  MEMB      301             0.0000000000
     35160       301  POPE      C24            41.0486943997       39.5996010296      -13.6954273624  MEMB      301             0.0000000000
     35161       301  POPE      H4R            40.1117009152       40.1577306787      -13.9072189605  MEMB      301             0.0000000000
     35162       301  POPE      H4S            41.3257376008       39.9751007188      -12.6871776613  MEMB      301             0.0000000000
     35163       301  POPE      C25            40.9932211463       38.0953238563      -13.4445779287  MEMB      301             0.0000000000
     35164       301  POPE      H5R            42.0163126652       37.6630934528      -13.4166191103  MEMB      301             0.0000000000
     35165       301  POPE      H5S            40.4350039335       37.6527707000      -14.2971398651  MEMB      301             0.0000000000
     35166       301  POPE      C26            40.0937968536       37.6729410707      -12.2629347716  MEMB      301             0.0000000000
     35167       301  POPE      H6R            39.1536801702       38.2649011306      -12.2537172649  MEMB      301             0.0000000000
     35168       301  POPE      H6S            40.6193757472       37.8775529332      -11.3057397921  MEMB      301             0.0000000000
     35169       301  POPE      C27            39.5272698417       36.1667062769      -12.1329511970  MEMB      301             0.0000000000
     35170       301  POPE      H7R            40.4023009680       35.5274285577      -11.8880727411  MEMB      301             0.0000000000
     35171       301  POPE      H7S            38.8710977033       35.9448588334      -13.0015956714  MEMB      301             0.0000000000
     35172       301  POPE      C28            38.5237296769       35.9947616469      -10.8970468350  MEMB      301             0.0000000000
     35173       301  POPE      H8R            37.8177128597       35.1833430327      -11.1753651456  MEMB      301             0.0000000000
     35174       301  POPE      H8S            37.8826528652       36.8911948969      -10.7565163518  MEMB      301             0.0000000000
     35175       301  POPE      C29            39.2355973392       35.5662586733       -9.6602905965  MEMB      301             0.0000000000
     35176       301  POPE      H91            39.4243929478       34.4872497368       -9.5598112933  MEMB      301             0.0000000000
     35177       301  POPE      C210           39.4717113018       36.3979213300       -8.6218590804  MEMB      301             0.0000000000
     35178       301  POPE      H101           40.0579069082       35.9833260950       -7.7885003507  MEMB      301             0.0000000000
     35179       301  POPE      C211           39.0690778063       37.8653144062       -8.4618840413  MEMB      301             0.0000000000
     35180       301  POPE      H11R           39.0216904663       38.4323784495       -9.4160921810  MEMB      301             0.0000000000
     35181       301  POPE      H11S           39.8277138889       38.3409469384       -7.8041865957  MEMB      301             0.0000000000
     35182       301  POPE      C212           37.7344693671       38.0246003247       -7.6303124991  MEMB      301             0.0000000000
     35183       301  POPE      H12R           36.9974262921       38.0385268274       -8.4615129469  MEMB      301             0.0000000000
     35184       301  POPE      H12S           37.6796440152       39.0137081116       -7.1273402734  MEMB      301             0.0000000000
     35185       301  POPE      C213           37.3468938813       36.9359816442       -6.5733592451  MEMB      301             0.0000000000
     35186       301  POPE      H13R           37.8356394630       37.2495112447       -5.6261801428  MEMB      301             0.0000000000
     35187       301  POPE      H13S           37.7098664694       35.9256930638       -6.8595213473  MEMB      301             0.0000000000
     35188       301  POPE      C214           35.8477222234       36.8314433699       -6.3894636260  MEMB      301             0.0000000000
     35189       301  POPE      H14R           35.4005148847       36.4538805288       -7.3338009967  MEMB      301             0.0000000000
     35190       301  POPE      H14S           35.4144631624       37.8417431778       -6.2285233082  MEMB      301             0.0000000000
     35191       301  POPE      C215           35.5153357109       35.9890877988       -5.1302605690  MEMB      301             0.0000000000
     35192       301  POPE      H15R           35.6243734679       34.9645953094       -5.5460091696  MEMB      301             0.0000000000
     35193       301  POPE      H15S           34.4220662292       36.0776081646       -4.9534934107  MEMB      301             0.0000000000
     35194       301  POPE      C216           36.4329333238       36.1032859704       -3.8948028048  MEMB      301             0.0000000000
     35195       301  POPE      H16R           36.7211900307       37.1762345095       -3.8915472305  MEMB      301             0.0000000000
     35196       301  POPE      H16S           37.3737454815       35.5540127230       -4.1127300406  MEMB      301             0.0000000000
     35197       301  POPE      C217           35.7880998299       35.6698687293       -2.6655253488  MEMB      301             0.0000000000
     35198       301  POPE      H17R           34.8149778477       36.1097673713       -2.3591860301  MEMB      301             0.0000000000
     35199       301  POPE      H17S           36.4054277084       36.0105552588       -1.8069450485  MEMB      301             0.0000000000
     35200       301  POPE      C218           35.6430358634       34.1015726549       -2.4486763196  MEMB      301             0.0000000000
     35201       301  POPE      H18R           36.6083467267       33.7076046017       -2.0648976965  MEMB      301             0.0000000000
     35202       301  POPE      H18S           35.3155470849       33.6630546102       -3.4155131009  MEMB      301             0.0000000000
     35203       301  POPE      H18T           34.9512641624       33.9616934055       -1.5906517356  MEMB      301             0.0000000000
     35204       301  POPE      C33            36.9409819372       40.5409025989      -11.7809100227  MEMB      301             0.0000000000
     35205       301  POPE      H3X            37.6853076243       39.7173600880      -11.7353255252  MEMB      301             0.0000000000
     35206       301  POPE      H3Y            35.9317850274       40.0765642124      -11.7961588984  MEMB      301             0.0000000000
     35207       301  POPE      C34            37.1373875830       41.2912934887      -10.4726485047  MEMB      301             0.0000000000
     35208       301  POPE      H4X            38.0397471956       41.9160008410      -10.6453035384  MEMB      301             0.0000000000
     35209       301  POPE      H4Y            37.2761433920       40.6431484412       -9.5810344123  MEMB      301             0.0000000000
     35210       301  POPE      C35            36.0058968090       42.3694515830      -10.2385275506  MEMB      301             0.0000000000
     35211       301  POPE      H5X            35.6809787120       42.7556339078      -11.2282812866  MEMB      301             0.0000000000
     35212       301  POPE      H5Y            36.4907607504       43.2202290419       -9.7137365840  MEMB      301             0.0000000000
     35213       301  POPE      C36            34.7705899257       41.9609320669       -9.4829472030  MEMB      301             0.0000000000
     35214       301  POPE      H6X            34.3898237968       41.0212247933       -9.9371373426  MEMB      301             0.0000000000
     35215       301  POPE      H6Y            34.0244230990       42.7812987572       -9.5504302787  MEMB      301             0.0000000000
     35216       301  POPE      C37            34.9000452403       41.7476835926       -7.9480702852  MEMB      301             0.0000000000
     35217       301  POPE      H7X            35.5554677098       42.5772083626       -7.6065577696  MEMB      301             0.0000000000
     35218       301  POPE      H7Y            35.2797734214       40.7629203424       -7.6011272962  MEMB      301             0.0000000000
     35219       301  POPE      C38            33.5229451816       42.0332939494       -7.2560111129  MEMB      301             0.0000000000
     35220       301  POPE      H8X            32.6733715791       41.4244614862       -7.6326657132  MEMB      301             0.0000000000
     35221       301  POPE      H8Y            33.3348467178       43.1003964935       -7.5014335677  MEMB      301             0.0000000000
     35222       301  POPE      C39            33.7292042340       41.8751298324       -5.7385971305  MEMB      301             0.0000000000
     35223       301  POPE      H9X            34.0999942167       40.8567479242       -5.4941915903  MEMB      301             0.0000000000
     35224       301  POPE      H9Y            32.6992106184       41.8084420435       -5.3275174903  MEMB      301             0.0000000000
     35225       301  POPE      C310           34.6872066410       42.8106039302       -5.0217057678  MEMB      301             0.0000000000
     35226       301  POPE      H10X           34.0411140585       43.6354804161       -4.6522945112  MEMB      301             0.0000000000
     35227       301  POPE      H10Y           35.4337844030       43.1687813742       -5.7624150362  MEMB      301             0.0000000000
     35228       301  POPE      C311           35.6445815750       42.3066194958       -3.9804041630  MEMB      301             0.0000000000
     35229       301  POPE      H11X           35.9950986237       43.1857104891       -3.3984604421  MEMB      301             0.0000000000
     35230       301  POPE      H11Y           36.5963458568       41.9277058936       -4.4103921884  MEMB      301             0.0000000000
     35231       301  POPE      C312           35.1523606532       41.1765583951       -3.0365786599  MEMB      301             0.0000000000
     35232       301  POPE      H12X           36.0112431270       40.7605873522       -2.4677118190  MEMB      301             0.0000000000
     35233       301  POPE      H12Y           34.6731403525       40.2777692981       -3.4802528389  MEMB      301             0.0000000000
     35234       301  POPE      C313           34.0522105140       41.7147055736       -2.1315390212  MEMB      301             0.0000000000
     35235       301  POPE      H13X           33.2005578067       42.0512322843       -2.7606330219  MEMB      301             0.0000000000
     35236       301  POPE      H13Y           34.5236759262       42.6148644856       -1.6823677316  MEMB      301             0.0000000000
     35237       301  POPE      C314           33.7098884753       40.5650873233       -1.1520382792  MEMB      301             0.0000000000
     35238       301  POPE      H14X           34.5673536243       39.8709792288       -1.0205508049  MEMB      301             0.0000000000
     35239       301  POPE      H14Y           32.9121304619       40.0235334131       -1.7039647329  MEMB      301             0.0000000000
     35240       301  POPE      C315           33.1549886051       40.9648307996        0.2378814882  MEMB      301             0.0000000000
     35241       301  POPE      H15X           32.2774516032       41.6100977419        0.0190656359  MEMB      301             0.0000000000
     35242       301  POPE      H15Y           33.9314683507       41.4632679917        0.8567194355  MEMB      301             0.0000000000
     35243       301  POPE      C316           32.6270522223       39.7315747305        1.1210007310  MEMB      301             0.0000000000
     35244       301  POPE      H16X           32.3558054864       40.0580130273        2.1477345754  MEMB      301             0.0000000000
     35245       301  POPE      H16Y           33.3466921478       38.8876955093        1.1866271645  MEMB      301             0.0000000000
     35246       301  POPE      H16Z           31.6248427585       39.3562391109        0.8226379147  MEMB      301             0.0000000000
     35247       302  POPE      N             -48.0784353353      -10.6878893194      -21.8498118122  MEMB      302             0.0000000000
     35248       302  POPE      HN1           -47.6846181877      -11.4909206120      -21.3191058226  MEMB      302             0.0000000000
     35249       302  POPE      HN2           -48.8182647772      -11.0373757804      -22.4917710410  MEMB      302             0.0000000000
     35250       302  POPE      HN3           -47.3256107881      -10.0587160314      -22.1947700589  MEMB      302             0.0000000000
     35251       302  POPE      C12           -48.7532138670       -9.9732594483      -20.6170991705  MEMB      302             0.0000000000
     35252       302  POPE      H12A          -49.3900915655       -9.1423306204      -20.9889391204  MEMB      302             0.0000000000
     35253       302  POPE      H12B          -47.9460882544       -9.5401218103      -19.9884013392  MEMB      302             0.0000000000
     35254       302  POPE      C11           -49.4857235366      -10.9399166937      -19.6792961023  MEMB      302             0.0000000000
     35255       302  POPE      H11A          -50.3868775770      -11.2105641245      -20.2700518193  MEMB      302             0.0000000000
     35256       302  POPE      H11B          -49.8855665256      -10.4085809815      -18.7892798756  MEMB      302             0.0000000000
     35257       302  POPE      P             -47.8383716313      -12.0986124964      -17.9622079660  MEMB      302             0.0000000000
     35258       302  POPE      O13           -46.5561351659      -11.3383937017      -18.1464009179  MEMB      302             0.0000000000
     35259       302  POPE      O14           -47.6860108673      -13.5126934810      -17.5843948425  MEMB      302             0.0000000000
     35260       302  POPE      O11           -48.7009927064      -11.4628730413      -16.8136517002  MEMB      302             0.0000000000
     35261       302  POPE      O12           -48.7011024901      -12.1095746187      -19.3471375098  MEMB      302             0.0000000000
     35262       302  POPE      C1            -49.9830490174      -11.9931175553      -16.3876404165  MEMB      302             0.0000000000
     35263       302  POPE      HA            -50.2066549496      -12.9354631829      -16.9319803679  MEMB      302             0.0000000000
     35264       302  POPE      HB            -50.8021379540      -11.2637396089      -16.5649028100  MEMB      302             0.0000000000
     35265       302  POPE      C2            -49.9564160288      -12.4145089219      -14.8478227908  MEMB      302             0.0000000000
     35266       302  POPE      HS            -50.9737301496      -12.1150471630      -14.5165891698  MEMB      302             0.0000000000
     35267       302  POPE      O21           -48.9313708658      -11.7842415299      -14.1089611691  MEMB      302             0.0000000000
     35268       302  POPE      C21           -49.2315322475      -10.4914092608      -13.8271267339  MEMB      302             0.0000000000
     35269       302  POPE      O22           -50.2521171352       -9.9509569808      -14.1691273316  MEMB      302             0.0000000000
     35270       302  POPE      C22           -48.0653721959       -9.8002385042      -12.9871896830  MEMB      302             0.0000000000
     35271       302  POPE      H2R           -48.1013226734       -8.7137163593      -13.2163143184  MEMB      302             0.0000000000
     35272       302  POPE      H2S           -47.1305728277      -10.2271494890      -13.4093484210  MEMB      302             0.0000000000
     35273       302  POPE      C3            -49.8319446114      -13.9078589495      -14.8151910456  MEMB      302             0.0000000000
     35274       302  POPE      HX            -48.9070008511      -14.3080501780      -15.2827879256  MEMB      302             0.0000000000
     35275       302  POPE      HY            -50.7114972334      -14.3576824914      -15.3234890405  MEMB      302             0.0000000000
     35276       302  POPE      O31           -49.7101692343      -14.2972888937      -13.4435219289  MEMB      302             0.0000000000
     35277       302  POPE      C31           -50.7558922429      -14.5727085036      -12.6725959471  MEMB      302             0.0000000000
     35278       302  POPE      O32           -51.9065492429      -14.4296840192      -12.9810121235  MEMB      302             0.0000000000
     35279       302  POPE      C32           -50.2303451647      -15.2842530669      -11.4481824992  MEMB      302             0.0000000000
     35280       302  POPE      H2X           -50.3226069740      -16.3837391855      -11.5783338583  MEMB      302             0.0000000000
     35281       302  POPE      H2Y           -51.0942384541      -15.1956214824      -10.7552512125  MEMB      302             0.0000000000
     35282       302  POPE      C23           -48.4394680568      -10.0295347052      -11.5278215578  MEMB      302             0.0000000000
     35283       302  POPE      H3R           -47.5814578143      -10.6222927694      -11.1447062117  MEMB      302             0.0000000000
     35284       302  POPE      H3S           -49.4165568943      -10.5224358634      -11.3363354519  MEMB      302             0.0000000000
     35285       302  POPE      C24           -48.3217797729       -8.7560601146      -10.7048656244  MEMB      302             0.0000000000
     35286       302  POPE      H4R           -48.9275739634       -7.9498098376      -11.1710143249  MEMB      302             0.0000000000
     35287       302  POPE      H4S           -47.2537073935       -8.4520795282      -10.7386040076  MEMB      302             0.0000000000
     35288       302  POPE      C25           -48.7426201199       -9.0218963618       -9.2016712935  MEMB      302             0.0000000000
     35289       302  POPE      H5R           -49.8397183240       -9.1970041590       -9.2074809521  MEMB      302             0.0000000000
     35290       302  POPE      H5S           -48.6744766783       -8.0835594770       -8.6107394907  MEMB      302             0.0000000000
     35291       302  POPE      C26           -47.9243029568      -10.1138507502       -8.4649044539  MEMB      302             0.0000000000
     35292       302  POPE      H6R           -46.8776265075       -9.7459622166       -8.4061909662  MEMB      302             0.0000000000
     35293       302  POPE      H6S           -47.9099747264      -11.0382717126       -9.0809900735  MEMB      302             0.0000000000
     35294       302  POPE      C27           -48.2368888739      -10.2084621983       -6.9495161007  MEMB      302             0.0000000000
     35295       302  POPE      H7R           -48.1960862210       -9.1417186514       -6.6417596428  MEMB      302             0.0000000000
     35296       302  POPE      H7S           -47.5859550180      -10.8215741294       -6.2901989988  MEMB      302             0.0000000000
     35297       302  POPE      C28           -49.7104721177      -10.6451365206       -6.6826360939  MEMB      302             0.0000000000
     35298       302  POPE      H8R           -50.2771073704       -9.9177982842       -7.3024941816  MEMB      302             0.0000000000
     35299       302  POPE      H8S           -50.0098302899      -10.5609719112       -5.6160425229  MEMB      302             0.0000000000
     35300       302  POPE      C29           -49.8608339393      -12.0963416037       -7.1887134361  MEMB      302             0.0000000000
     35301       302  POPE      H91           -49.8756944297      -12.0501471639       -8.2876422470  MEMB      302             0.0000000000
     35302       302  POPE      C210          -50.0807033678      -13.1958092935       -6.4303734281  MEMB      302             0.0000000000
     35303       302  POPE      H101          -49.9791331883      -14.1572542491       -6.9550710851  MEMB      302             0.0000000000
     35304       302  POPE      C211          -50.2083380722      -13.2653680011       -4.9023442390  MEMB      302             0.0000000000
     35305       302  POPE      H11R          -50.9675560723      -14.0176857553       -4.5991495821  MEMB      302             0.0000000000
     35306       302  POPE      H11S          -50.6419077848      -12.2949023611       -4.5790268229  MEMB      302             0.0000000000
     35307       302  POPE      C212          -49.0004287513      -13.5658784470       -4.0044418754  MEMB      302             0.0000000000
     35308       302  POPE      H12R          -48.2250064930      -12.7846415451       -4.1551408123  MEMB      302             0.0000000000
     35309       302  POPE      H12S          -48.4685834529      -14.5313650348       -4.1433549197  MEMB      302             0.0000000000
     35310       302  POPE      C213          -49.5266258202      -13.4308208288       -2.5613621996  MEMB      302             0.0000000000
     35311       302  POPE      H13R          -49.9332800578      -14.4342270969       -2.3121057547  MEMB      302             0.0000000000
     35312       302  POPE      H13S          -50.3602830567      -12.7030277582       -2.4631081846  MEMB      302             0.0000000000
     35313       302  POPE      C214          -48.6200767113      -12.9651299568       -1.4145433700  MEMB      302             0.0000000000
     35314       302  POPE      H14R          -47.9388968720      -12.1458390425       -1.7293099773  MEMB      302             0.0000000000
     35315       302  POPE      H14S          -47.8985458237      -13.7799153427       -1.1912976945  MEMB      302             0.0000000000
     35316       302  POPE      C215          -49.1738403437      -12.7816101021        0.0943030269  MEMB      302             0.0000000000
     35317       302  POPE      H15R          -49.5265350862      -13.7890858186        0.4023943543  MEMB      302             0.0000000000
     35318       302  POPE      H15S          -50.0396104190      -12.0853794986        0.0994093013  MEMB      302             0.0000000000
     35319       302  POPE      C216          -48.1747041392      -12.1700466846        1.1324035732  MEMB      302             0.0000000000
     35320       302  POPE      H16R          -47.1677908286      -12.6299426071        1.2269667205  MEMB      302             0.0000000000
     35321       302  POPE      H16S          -48.6238789635      -12.2170125966        2.1474688451  MEMB      302             0.0000000000
     35322       302  POPE      C217          -47.6370005709      -10.8219603034        0.7483066505  MEMB      302             0.0000000000
     35323       302  POPE      H17R          -47.1944461940      -10.9373049494       -0.2641966375  MEMB      302             0.0000000000
     35324       302  POPE      H17S          -46.8115098782      -10.7450131046        1.4878771409  MEMB      302             0.0000000000
     35325       302  POPE      C218          -48.5473517712       -9.6389534128        0.9793538193  MEMB      302             0.0000000000
     35326       302  POPE      H18R          -49.3149481140       -9.5768241533        0.1785670545  MEMB      302             0.0000000000
     35327       302  POPE      H18S          -47.9052819621       -8.7907346817        1.2996542018  MEMB      302             0.0000000000
     35328       302  POPE      H18T          -49.1432138373       -9.9734444397        1.8553590676  MEMB      302             0.0000000000
     35329       302  POPE      C33           -48.8702312126      -14.7849089841      -10.9383723492  MEMB      302             0.0000000000
     35330       302  POPE      H3X           -49.0091704314      -13.7049572377      -10.7176444703  MEMB      302             0.0000000000
     35331       302  POPE      H3Y           -48.1792532876      -14.8085741828      -11.8080335869  MEMB      302             0.0000000000
     35332       302  POPE      C34           -48.2905978348      -15.5964522820       -9.8548220047  MEMB      302             0.0000000000
     35333       302  POPE      H4X           -48.4057192054      -16.6661900188      -10.1318215636  MEMB      302             0.0000000000
     35334       302  POPE      H4Y           -48.7410780512      -15.4824947634       -8.8456628534  MEMB      302             0.0000000000
     35335       302  POPE      C35           -46.7341584228      -15.4403117212       -9.8713543331  MEMB      302             0.0000000000
     35336       302  POPE      H5X           -46.4604104002      -15.4583151829      -10.9479508239  MEMB      302             0.0000000000
     35337       302  POPE      H5Y           -46.2734047562      -16.3193990829       -9.3721233771  MEMB      302             0.0000000000
     35338       302  POPE      C36           -46.2680657899      -14.0661010810       -9.1754388793  MEMB      302             0.0000000000
     35339       302  POPE      H6X           -46.8755254032      -14.0090418518       -8.2469679931  MEMB      302             0.0000000000
     35340       302  POPE      H6Y           -46.7975523746      -13.2776875858       -9.7519536528  MEMB      302             0.0000000000
     35341       302  POPE      C37           -44.7795344675      -13.7664345295       -8.9084872083  MEMB      302             0.0000000000
     35342       302  POPE      H7X           -44.2948454546      -13.5039173667       -9.8731020142  MEMB      302             0.0000000000
     35343       302  POPE      H7Y           -44.2595610351      -14.6540030566       -8.4887607567  MEMB      302             0.0000000000
     35344       302  POPE      C38           -44.5188987750      -12.5105958699       -8.0128037903  MEMB      302             0.0000000000
     35345       302  POPE      H8X           -44.6918989740      -11.5511324980       -8.5455531716  MEMB      302             0.0000000000
     35346       302  POPE      H8Y           -43.4226968100      -12.4807590442       -7.8345575645  MEMB      302             0.0000000000
     35347       302  POPE      C39           -45.1194820465      -12.5530718397       -6.5968919550  MEMB      302             0.0000000000
     35348       302  POPE      H9X           -46.2083299620      -12.6258777211       -6.8052919428  MEMB      302             0.0000000000
     35349       302  POPE      H9Y           -44.8683561283      -11.6571391614       -5.9897992552  MEMB      302             0.0000000000
     35350       302  POPE      C310          -44.6127960601      -13.6353059503       -5.6378099719  MEMB      302             0.0000000000
     35351       302  POPE      H10X          -43.5175283618      -13.4558729564       -5.5876721330  MEMB      302             0.0000000000
     35352       302  POPE      H10Y          -44.7478437242      -14.6132779904       -6.1473722888  MEMB      302             0.0000000000
     35353       302  POPE      C311          -45.2368613370      -13.4995389966       -4.2418046538  MEMB      302             0.0000000000
     35354       302  POPE      H11X          -46.2144933213      -14.0259145806       -4.2032601958  MEMB      302             0.0000000000
     35355       302  POPE      H11Y          -45.4497789016      -12.4332541298       -4.0137172777  MEMB      302             0.0000000000
     35356       302  POPE      C312          -44.3810108163      -14.0656876695       -3.1568234940  MEMB      302             0.0000000000
     35357       302  POPE      H12X          -43.3346517439      -13.7696024514       -3.3843925129  MEMB      302             0.0000000000
     35358       302  POPE      H12Y          -44.3273761634      -15.1730525044       -3.2288490973  MEMB      302             0.0000000000
     35359       302  POPE      C313          -44.5813022575      -13.5335409408       -1.6971917284  MEMB      302             0.0000000000
     35360       302  POPE      H13X          -43.8142722490      -14.0616054223       -1.0912773395  MEMB      302             0.0000000000
     35361       302  POPE      H13Y          -45.4947429988      -14.1133422683       -1.4446499080  MEMB      302             0.0000000000
     35362       302  POPE      C314          -44.7102238680      -12.0253632775       -1.4580771981  MEMB      302             0.0000000000
     35363       302  POPE      H14X          -44.7744653960      -11.6761012157       -0.4053604658  MEMB      302             0.0000000000
     35364       302  POPE      H14Y          -45.6084774328      -11.8165129510       -2.0776280169  MEMB      302             0.0000000000
     35365       302  POPE      C315          -43.6068348397      -11.1066524640       -2.1965117153  MEMB      302             0.0000000000
     35366       302  POPE      H15X          -43.8390151483      -11.1023927646       -3.2829720487  MEMB      302             0.0000000000
     35367       302  POPE      H15Y          -42.6443683384      -11.6432130447       -2.0548028423  MEMB      302             0.0000000000
     35368       302  POPE      C316          -43.5076652630       -9.7806990767       -1.6293377998  MEMB      302             0.0000000000
     35369       302  POPE      H16X          -43.0517936941       -9.7953245196       -0.6162779337  MEMB      302             0.0000000000
     35370       302  POPE      H16Y          -44.4678191346       -9.2388338981       -1.4921971483  MEMB      302             0.0000000000
     35371       302  POPE      H16Z          -42.9208533285       -9.0811625220       -2.2622843670  MEMB      302             0.0000000000
     35372       303  POPE      N             -27.8313903034      -38.7456954457      -19.5689112027  MEMB      303             0.0000000000
     35373       303  POPE      HN1           -27.9668081900      -39.0222636375      -18.5755472037  MEMB      303             0.0000000000
     35374       303  POPE      HN2           -28.6290965498      -39.1066707340      -20.1301254303  MEMB      303             0.0000000000
     35375       303  POPE      HN3           -26.9071188172      -39.0706131694      -19.9178395638  MEMB      303             0.0000000000
     35376       303  POPE      C12           -27.5880671853      -37.2481062390      -19.5482561583  MEMB      303             0.0000000000
     35377       303  POPE      H12A          -27.6927374186      -36.9239074249      -20.6057344298  MEMB      303             0.0000000000
     35378       303  POPE      H12B          -26.5353588772      -37.0877053803      -19.2313999971  MEMB      303             0.0000000000
     35379       303  POPE      C11           -28.6989441677      -36.6150386387      -18.7294692930  MEMB      303             0.0000000000
     35380       303  POPE      H11A          -28.2675193770      -35.6228553452      -18.4769503483  MEMB      303             0.0000000000
     35381       303  POPE      H11B          -28.7102542753      -37.2479078146      -17.8164141372  MEMB      303             0.0000000000
     35382       303  POPE      P             -31.3171395188      -36.8151072825      -18.8867358075  MEMB      303             0.0000000000
     35383       303  POPE      O13           -31.5579206600      -38.2021647050      -19.0853593199  MEMB      303             0.0000000000
     35384       303  POPE      O14           -32.3359471648      -35.8346485550      -19.3689741267  MEMB      303             0.0000000000
     35385       303  POPE      O11           -31.0533512019      -36.6086858230      -17.3318132836  MEMB      303             0.0000000000
     35386       303  POPE      O12           -29.8975077988      -36.4400773094      -19.4804808123  MEMB      303             0.0000000000
     35387       303  POPE      C1            -31.0807088312      -35.3248357153      -16.7866578672  MEMB      303             0.0000000000
     35388       303  POPE      HA            -32.0147764533      -34.7421077783      -16.9358785481  MEMB      303             0.0000000000
     35389       303  POPE      HB            -30.3914007261      -34.6057954006      -17.2787520297  MEMB      303             0.0000000000
     35390       303  POPE      C2            -30.7584531507      -35.3976310810      -15.2978246859  MEMB      303             0.0000000000
     35391       303  POPE      HS            -30.7438327871      -34.4369111076      -14.7400394435  MEMB      303             0.0000000000
     35392       303  POPE      O21           -29.5433959890      -35.9759332867      -15.0255252636  MEMB      303             0.0000000000
     35393       303  POPE      C21           -28.4161421696      -35.1647476800      -15.1334721642  MEMB      303             0.0000000000
     35394       303  POPE      O22           -28.5111136113      -33.9680303624      -15.3809199693  MEMB      303             0.0000000000
     35395       303  POPE      C22           -27.1271690804      -35.8914473093      -14.8553273570  MEMB      303             0.0000000000
     35396       303  POPE      H2R           -26.8445304018      -36.1972344444      -15.8853423053  MEMB      303             0.0000000000
     35397       303  POPE      H2S           -27.4135104129      -36.8031796281      -14.2886940469  MEMB      303             0.0000000000
     35398       303  POPE      C3            -31.9072414895      -36.2403718342      -14.5851236694  MEMB      303             0.0000000000
     35399       303  POPE      HX            -31.7519304295      -37.2683271787      -14.9769235223  MEMB      303             0.0000000000
     35400       303  POPE      HY            -32.9674830929      -35.9921012636      -14.8055109940  MEMB      303             0.0000000000
     35401       303  POPE      O31           -31.7521590588      -36.2532527171      -13.1415131165  MEMB      303             0.0000000000
     35402       303  POPE      C31           -32.3824184434      -37.2134119839      -12.4755561295  MEMB      303             0.0000000000
     35403       303  POPE      O32           -33.2184074024      -37.9526627297      -12.9557320784  MEMB      303             0.0000000000
     35404       303  POPE      C32           -32.0076764601      -37.1265927135      -10.9604420959  MEMB      303             0.0000000000
     35405       303  POPE      H2X           -30.9648457352      -36.7450707692      -10.9248580656  MEMB      303             0.0000000000
     35406       303  POPE      H2Y           -32.0021590415      -38.1429920194      -10.5118630391  MEMB      303             0.0000000000
     35407       303  POPE      C23           -26.0395884998      -35.0651729578      -14.2371644311  MEMB      303             0.0000000000
     35408       303  POPE      H3R           -25.9140828071      -34.0485880322      -14.6674250655  MEMB      303             0.0000000000
     35409       303  POPE      H3S           -25.1540037673      -35.6550675208      -14.5566720001  MEMB      303             0.0000000000
     35410       303  POPE      C24           -26.0257253568      -34.9654174960      -12.6654295242  MEMB      303             0.0000000000
     35411       303  POPE      H4R           -25.3633966719      -34.1114571741      -12.4077594888  MEMB      303             0.0000000000
     35412       303  POPE      H4S           -25.5345960823      -35.8659317892      -12.2385959258  MEMB      303             0.0000000000
     35413       303  POPE      C25           -27.4076725410      -34.6332024496      -12.1633988852  MEMB      303             0.0000000000
     35414       303  POPE      H5R           -28.1813785679      -35.3825092276      -12.4358676705  MEMB      303             0.0000000000
     35415       303  POPE      H5S           -27.6293394776      -33.7004988491      -12.7248688167  MEMB      303             0.0000000000
     35416       303  POPE      C26           -27.5012918510      -34.3165767296      -10.7034034025  MEMB      303             0.0000000000
     35417       303  POPE      H6R           -28.3878953747      -33.7132260366      -10.4131912408  MEMB      303             0.0000000000
     35418       303  POPE      H6S           -26.6999324303      -33.5937893655      -10.4393531126  MEMB      303             0.0000000000
     35419       303  POPE      C27           -27.3485028654      -35.6381205680       -9.9036386065  MEMB      303             0.0000000000
     35420       303  POPE      H7R           -26.4030913973      -36.1013517685      -10.2585119768  MEMB      303             0.0000000000
     35421       303  POPE      H7S           -28.2473122036      -36.2170924833      -10.2057220796  MEMB      303             0.0000000000
     35422       303  POPE      C28           -27.1346896261      -35.6980139300       -8.3421910418  MEMB      303             0.0000000000
     35423       303  POPE      H8R           -26.1142706438      -35.3700925492       -8.0497297811  MEMB      303             0.0000000000
     35424       303  POPE      H8S           -27.1418238520      -36.7892384803       -8.1336266507  MEMB      303             0.0000000000
     35425       303  POPE      C29           -28.1731724931      -34.7936834886       -7.6645131221  MEMB      303             0.0000000000
     35426       303  POPE      H91           -28.0792857407      -33.7027191930       -7.7693094717  MEMB      303             0.0000000000
     35427       303  POPE      C210          -29.1868238724      -35.3343293734       -6.9236055092  MEMB      303             0.0000000000
     35428       303  POPE      H101          -29.8948666312      -34.5640120084       -6.5840666220  MEMB      303             0.0000000000
     35429       303  POPE      C211          -29.4996405712      -36.7859530088       -6.5163838530  MEMB      303             0.0000000000
     35430       303  POPE      H11R          -28.5877077387      -37.4183359058       -6.5692159315  MEMB      303             0.0000000000
     35431       303  POPE      H11S          -30.1581533041      -37.2691270837       -7.2695267640  MEMB      303             0.0000000000
     35432       303  POPE      C212          -30.0956347748      -36.9706983331       -5.0971647009  MEMB      303             0.0000000000
     35433       303  POPE      H12R          -30.1854153021      -38.0623790159       -4.9114398421  MEMB      303             0.0000000000
     35434       303  POPE      H12S          -31.1653810307      -36.6800168661       -5.0232182749  MEMB      303             0.0000000000
     35435       303  POPE      C213          -29.3610805899      -36.2017817769       -4.0793563602  MEMB      303             0.0000000000
     35436       303  POPE      H13R          -29.7062505044      -35.1477560971       -4.0144815846  MEMB      303             0.0000000000
     35437       303  POPE      H13S          -28.2692078088      -36.2083497875       -4.2845191221  MEMB      303             0.0000000000
     35438       303  POPE      C214          -29.5071480452      -36.9338587322       -2.7006707267  MEMB      303             0.0000000000
     35439       303  POPE      H14R          -28.7304728283      -36.4016115354       -2.1109157627  MEMB      303             0.0000000000
     35440       303  POPE      H14S          -29.2022143970      -38.0008088913       -2.6463203925  MEMB      303             0.0000000000
     35441       303  POPE      C215          -30.8882004903      -36.7021081835       -2.0390897918  MEMB      303             0.0000000000
     35442       303  POPE      H15R          -31.6302407864      -37.2689972062       -2.6410308268  MEMB      303             0.0000000000
     35443       303  POPE      H15S          -31.1422833787      -35.6221535702       -2.0979157887  MEMB      303             0.0000000000
     35444       303  POPE      C216          -31.0708185421      -37.1653895718       -0.6109326086  MEMB      303             0.0000000000
     35445       303  POPE      H16R          -30.7672839375      -38.2338361223       -0.5862483696  MEMB      303             0.0000000000
     35446       303  POPE      H16S          -32.1676789306      -37.2533583030       -0.4577026169  MEMB      303             0.0000000000
     35447       303  POPE      C217          -30.3762229612      -36.3755699107        0.4507850873  MEMB      303             0.0000000000
     35448       303  POPE      H17R          -30.7276695804      -35.3227576474        0.4018654084  MEMB      303             0.0000000000
     35449       303  POPE      H17S          -29.2787670937      -36.3347430708        0.2827218643  MEMB      303             0.0000000000
     35450       303  POPE      C218          -30.7891102250      -36.7017049448        1.8971545386  MEMB      303             0.0000000000
     35451       303  POPE      H18R          -30.0878305599      -37.4834948303        2.2595518383  MEMB      303             0.0000000000
     35452       303  POPE      H18S          -31.7951538752      -37.1730546368        1.9023128621  MEMB      303             0.0000000000
     35453       303  POPE      H18T          -30.8026854062      -35.8080418741        2.5570805472  MEMB      303             0.0000000000
     35454       303  POPE      C33           -33.0323200071      -36.2137199401      -10.2728338265  MEMB      303             0.0000000000
     35455       303  POPE      H3X           -34.0928515238      -36.5440691979      -10.2943510512  MEMB      303             0.0000000000
     35456       303  POPE      H3Y           -32.8963609351      -35.1468483158      -10.5514400827  MEMB      303             0.0000000000
     35457       303  POPE      C34           -32.6799289251      -36.2904781070       -8.7711465857  MEMB      303             0.0000000000
     35458       303  POPE      H4X           -31.5836691493      -36.1497345354       -8.6583338156  MEMB      303             0.0000000000
     35459       303  POPE      H4Y           -32.8888636290      -37.3320740134       -8.4459612248  MEMB      303             0.0000000000
     35460       303  POPE      C35           -33.1546512465      -35.1916099219       -7.8737989495  MEMB      303             0.0000000000
     35461       303  POPE      H5X           -32.9785714884      -34.2446272568       -8.4274600217  MEMB      303             0.0000000000
     35462       303  POPE      H5Y           -32.6597141834      -35.1923208653       -6.8791341637  MEMB      303             0.0000000000
     35463       303  POPE      C36           -34.6826503901      -35.3338485321       -7.6081531010  MEMB      303             0.0000000000
     35464       303  POPE      H6X           -35.2534713707      -35.1253999092       -8.5382244803  MEMB      303             0.0000000000
     35465       303  POPE      H6Y           -34.9751887603      -34.5376480499       -6.8906523670  MEMB      303             0.0000000000
     35466       303  POPE      C37           -35.1237487184      -36.7118736514       -6.9884654582  MEMB      303             0.0000000000
     35467       303  POPE      H7X           -34.9621850769      -37.3029418996       -7.9152114542  MEMB      303             0.0000000000
     35468       303  POPE      H7Y           -36.2163219362      -36.6433449302       -6.7989713856  MEMB      303             0.0000000000
     35469       303  POPE      C38           -34.3974367672      -37.1681505042       -5.7366634879  MEMB      303             0.0000000000
     35470       303  POPE      H8X           -34.4355856801      -36.3399482230       -4.9971047959  MEMB      303             0.0000000000
     35471       303  POPE      H8Y           -33.3558718276      -37.5090913765       -5.9189366917  MEMB      303             0.0000000000
     35472       303  POPE      C39           -35.1014156739      -38.3421814643       -5.0264522128  MEMB      303             0.0000000000
     35473       303  POPE      H9X           -36.1362852813      -38.0611858661       -4.7359222138  MEMB      303             0.0000000000
     35474       303  POPE      H9Y           -34.4736164455      -38.6436818584       -4.1608391859  MEMB      303             0.0000000000
     35475       303  POPE      C310          -35.0888576077      -39.6665821879       -5.7905617686  MEMB      303             0.0000000000
     35476       303  POPE      H10X          -35.7115355336      -39.7536993792       -6.7065338047  MEMB      303             0.0000000000
     35477       303  POPE      H10Y          -35.4338122414      -40.5451751951       -5.2045572916  MEMB      303             0.0000000000
     35478       303  POPE      C311          -33.6776616908      -40.1387643930       -6.2047234083  MEMB      303             0.0000000000
     35479       303  POPE      H11X          -33.3631456342      -39.4504765982       -7.0181485069  MEMB      303             0.0000000000
     35480       303  POPE      H11Y          -33.7954792708      -41.1500174415       -6.6494788636  MEMB      303             0.0000000000
     35481       303  POPE      C312          -32.6251790495      -40.1786273634       -5.1147756742  MEMB      303             0.0000000000
     35482       303  POPE      H12X          -32.4893363898      -39.1063150804       -4.8578434035  MEMB      303             0.0000000000
     35483       303  POPE      H12Y          -31.7043474949      -40.4866603844       -5.6546884032  MEMB      303             0.0000000000
     35484       303  POPE      C313          -32.8224462051      -40.9587919909       -3.9221296327  MEMB      303             0.0000000000
     35485       303  POPE      H13X          -33.0870452119      -41.9468053721       -4.3558783809  MEMB      303             0.0000000000
     35486       303  POPE      H13Y          -33.7242127549      -40.5760158644       -3.3980872921  MEMB      303             0.0000000000
     35487       303  POPE      C314          -31.5343408507      -41.2565116479       -3.0667315690  MEMB      303             0.0000000000
     35488       303  POPE      H14X          -31.3649962738      -40.2394439323       -2.6529493147  MEMB      303             0.0000000000
     35489       303  POPE      H14Y          -30.7648293374      -41.6143168287       -3.7837734507  MEMB      303             0.0000000000
     35490       303  POPE      C315          -31.7558391476      -42.2220788592       -1.8229432965  MEMB      303             0.0000000000
     35491       303  POPE      H15X          -32.7371760902      -41.9515909289       -1.3778193525  MEMB      303             0.0000000000
     35492       303  POPE      H15Y          -30.8887103605      -42.1091628357       -1.1376280526  MEMB      303             0.0000000000
     35493       303  POPE      C316          -31.9811736925      -43.7007182633       -2.2377232160  MEMB      303             0.0000000000
     35494       303  POPE      H16X          -31.2317930768      -43.8753103138       -3.0391377036  MEMB      303             0.0000000000
     35495       303  POPE      H16Y          -33.0206466508      -43.8283949153       -2.6085526671  MEMB      303             0.0000000000
     35496       303  POPE      H16Z          -31.7523773091      -44.4477923230       -1.4478792187  MEMB      303             0.0000000000
     35497       304  POPC      N              52.0646586526       17.9601644826      -18.3343825845  MEMB      304             0.0000000000
     35498       304  POPC      C12            50.6929850861       18.4689020594      -18.8168521560  MEMB      304             0.0000000000
     35499       304  POPC      H12A           50.1880579629       19.1037769398      -18.1038427235  MEMB      304             0.0000000000
     35500       304  POPC      H12B           50.1284578390       17.5525796004      -18.9066400769  MEMB      304             0.0000000000
     35501       304  POPC      C13            51.8905546736       17.1273876017      -17.0976900758  MEMB      304             0.0000000000
     35502       304  POPC      H13A           51.2232164095       16.2881888785      -17.2273251002  MEMB      304             0.0000000000
     35503       304  POPC      H13B           52.8524643630       16.7043790024      -16.8483040657  MEMB      304             0.0000000000
     35504       304  POPC      H13C           51.5251245379       17.7332709768      -16.2817450804  MEMB      304             0.0000000000
     35505       304  POPC      C14            52.9189695253       17.2623955667      -19.4007562229  MEMB      304             0.0000000000
     35506       304  POPC      H14A           53.0156786072       17.9635878372      -20.2164624914  MEMB      304             0.0000000000
     35507       304  POPC      H14B           53.8208086449       16.9723089188      -18.8821660151  MEMB      304             0.0000000000
     35508       304  POPC      H14C           52.4476845920       16.3635948618      -19.7701446689  MEMB      304             0.0000000000
     35509       304  POPC      C15            52.8037635970       19.1758645438      -17.7613426296  MEMB      304             0.0000000000
     35510       304  POPC      H15A           52.3794006846       19.6525361045      -16.8900789311  MEMB      304             0.0000000000
     35511       304  POPC      H15B           52.7214092271       19.9186664524      -18.5409982902  MEMB      304             0.0000000000
     35512       304  POPC      H15C           53.8257871709       18.8788161085      -17.5779569417  MEMB      304             0.0000000000
     35513       304  POPC      C11            50.5647057605       19.3076429461      -20.1040826416  MEMB      304             0.0000000000
     35514       304  POPC      H11A           49.5497383817       19.5170367923      -20.5044779595  MEMB      304             0.0000000000
     35515       304  POPC      H11B           51.1587297483       18.7189228318      -20.8354274275  MEMB      304             0.0000000000
     35516       304  POPC      P              50.2668568601       21.8571223175      -19.5832880227  MEMB      304             0.0000000000
     35517       304  POPC      O13            49.5181196821       22.2909601425      -20.7441626881  MEMB      304             0.0000000000
     35518       304  POPC      O14            51.0149414928       22.8813302038      -18.8358704959  MEMB      304             0.0000000000
     35519       304  POPC      O12            51.1608103987       20.5826853076      -19.9689102083  MEMB      304             0.0000000000
     35520       304  POPC      O11            49.3076294097       21.1967920310      -18.3526622740  MEMB      304             0.0000000000
     35521       304  POPC      C1             48.3166108813       22.0075894054      -17.6816153321  MEMB      304             0.0000000000
     35522       304  POPC      HA             47.5430795619       22.3975816021      -18.3772272513  MEMB      304             0.0000000000
     35523       304  POPC      HB             48.7975836837       22.8882476420      -17.2047220163  MEMB      304             0.0000000000
     35524       304  POPC      C2             47.6792995711       21.2620196257      -16.4566200502  MEMB      304             0.0000000000
     35525       304  POPC      HS             47.0023992402       21.9978256179      -15.9721446247  MEMB      304             0.0000000000
     35526       304  POPC      O21            48.6882458277       20.7894624989      -15.6453420420  MEMB      304             0.0000000000
     35527       304  POPC      C21            49.3990867455       21.7824090496      -15.0503352964  MEMB      304             0.0000000000
     35528       304  POPC      O22            48.9954506205       22.9122321865      -14.8905664897  MEMB      304             0.0000000000
     35529       304  POPC      C22            50.7956035527       21.2907639712      -14.5630070100  MEMB      304             0.0000000000
     35530       304  POPC      H2R            51.4924480040       21.0244313491      -15.3862907713  MEMB      304             0.0000000000
     35531       304  POPC      H2S            50.7549687092       20.3424753656      -13.9855833456  MEMB      304             0.0000000000
     35532       304  POPC      C3             46.8918672978       20.0561999667      -17.0587661507  MEMB      304             0.0000000000
     35533       304  POPC      HX             47.6516981416       19.3195219527      -17.3968247452  MEMB      304             0.0000000000
     35534       304  POPC      HY             46.2063079257       20.4220065263      -17.8528157949  MEMB      304             0.0000000000
     35535       304  POPC      O31            46.0704002490       19.4348602215      -15.9640465389  MEMB      304             0.0000000000
     35536       304  POPC      C31            45.3386332496       18.3203760728      -16.2959530984  MEMB      304             0.0000000000
     35537       304  POPC      O32            45.2084299341       17.8342800526      -17.3988998288  MEMB      304             0.0000000000
     35538       304  POPC      C32            44.8651445169       17.5863530959      -14.9644769902  MEMB      304             0.0000000000
     35539       304  POPC      H2X            44.4192215009       16.6078131791      -15.2436431819  MEMB      304             0.0000000000
     35540       304  POPC      H2Y            44.0536272743       18.2230220984      -14.5516652759  MEMB      304             0.0000000000
     35541       304  POPC      C23            51.5139042919       22.3543343072      -13.8163178597  MEMB      304             0.0000000000
     35542       304  POPC      H3R            50.8546378508       22.6459892897      -12.9709621890  MEMB      304             0.0000000000
     35543       304  POPC      H3S            51.6130455817       23.2155079033      -14.5112079585  MEMB      304             0.0000000000
     35544       304  POPC      C24            52.9163457151       22.0347589019      -13.2018251725  MEMB      304             0.0000000000
     35545       304  POPC      H4R            53.4661215202       22.9727756775      -12.9733688629  MEMB      304             0.0000000000
     35546       304  POPC      H4S            53.5155079067       21.6453154417      -14.0525069520  MEMB      304             0.0000000000
     35547       304  POPC      C25            53.0030522096       20.9995830485      -12.0385404760  MEMB      304             0.0000000000
     35548       304  POPC      H5R            54.0762430366       20.7126580460      -12.0545535357  MEMB      304             0.0000000000
     35549       304  POPC      H5S            52.4156678570       20.0741712445      -12.2199615938  MEMB      304             0.0000000000
     35550       304  POPC      C26            52.7465801604       21.4419992709      -10.5262203833  MEMB      304             0.0000000000
     35551       304  POPC      H6R            53.5800886045       22.1362647843      -10.2862625376  MEMB      304             0.0000000000
     35552       304  POPC      H6S            52.8513927434       20.6004804532       -9.8084593600  MEMB      304             0.0000000000
     35553       304  POPC      C27            51.2974375501       21.8436338782      -10.2954847597  MEMB      304             0.0000000000
     35554       304  POPC      H7R            50.6107487744       21.0533997784      -10.6673841459  MEMB      304             0.0000000000
     35555       304  POPC      H7S            51.0768318845       22.7918285982      -10.8308180430  MEMB      304             0.0000000000
     35556       304  POPC      C28            50.7726703263       22.1986641029       -8.8972268525  MEMB      304             0.0000000000
     35557       304  POPC      H8R            51.5769343088       22.8605043115       -8.5106422135  MEMB      304             0.0000000000
     35558       304  POPC      H8S            50.7635464283       21.2737118953       -8.2818402625  MEMB      304             0.0000000000
     35559       304  POPC      C29            49.3602673551       22.8147282447       -8.8342968240  MEMB      304             0.0000000000
     35560       304  POPC      H91            49.0965352569       23.4923942246       -9.6596536035  MEMB      304             0.0000000000
     35561       304  POPC      C210           48.4258893471       22.3868201212       -7.9610607871  MEMB      304             0.0000000000
     35562       304  POPC      H101           47.4451844331       22.8850039670       -7.9666280023  MEMB      304             0.0000000000
     35563       304  POPC      C211           48.5289852009       21.2824551733       -6.9443337456  MEMB      304             0.0000000000
     35564       304  POPC      H11R           49.5499010450       21.0859316365       -6.5526317572  MEMB      304             0.0000000000
     35565       304  POPC      H11S           48.3339511678       20.3722819537       -7.5508545902  MEMB      304             0.0000000000
     35566       304  POPC      C212           47.4976053484       21.4904640132       -5.7219382301  MEMB      304             0.0000000000
     35567       304  POPC      H12R           47.2746387504       20.5016197543       -5.2671922181  MEMB      304             0.0000000000
     35568       304  POPC      H12S           46.4555794911       21.7418299779       -6.0140306749  MEMB      304             0.0000000000
     35569       304  POPC      C213           47.9807057016       22.5542297058       -4.7008186612  MEMB      304             0.0000000000
     35570       304  POPC      H13R           48.3577684622       23.4495050315       -5.2399171464  MEMB      304             0.0000000000
     35571       304  POPC      H13S           48.9090975344       22.1841330746       -4.2155989512  MEMB      304             0.0000000000
     35572       304  POPC      C214           47.0437739028       22.9488602925       -3.5620850606  MEMB      304             0.0000000000
     35573       304  POPC      H14R           46.2535024267       23.5843141193       -4.0159468973  MEMB      304             0.0000000000
     35574       304  POPC      H14S           47.4743412953       23.6317244356       -2.7987834670  MEMB      304             0.0000000000
     35575       304  POPC      C215           46.3464372114       21.7751654345       -2.8829350034  MEMB      304             0.0000000000
     35576       304  POPC      H15R           47.1228991671       21.0465912867       -2.5657480754  MEMB      304             0.0000000000
     35577       304  POPC      H15S           45.7147115728       21.2325096050       -3.6183040726  MEMB      304             0.0000000000
     35578       304  POPC      C216           45.4536091230       22.0705215031       -1.6950556895  MEMB      304             0.0000000000
     35579       304  POPC      H16R           44.7240844326       22.8566437307       -1.9851023382  MEMB      304             0.0000000000
     35580       304  POPC      H16S           46.0968286009       22.5265943507       -0.9123769112  MEMB      304             0.0000000000
     35581       304  POPC      C217           44.7884020726       20.8225301957       -1.2687865266  MEMB      304             0.0000000000
     35582       304  POPC      H17R           45.4641660631       20.0133965215       -0.9181215492  MEMB      304             0.0000000000
     35583       304  POPC      H17S           44.0270521491       20.3851737242       -1.9495125213  MEMB      304             0.0000000000
     35584       304  POPC      C218           43.8124445845       21.2181565313       -0.1584803936  MEMB      304             0.0000000000
     35585       304  POPC      H18R           43.5427094343       20.3675758383        0.5033924677  MEMB      304             0.0000000000
     35586       304  POPC      H18S           42.8505438546       21.4952780372       -0.6404266705  MEMB      304             0.0000000000
     35587       304  POPC      H18T           44.2254959506       22.0721338548        0.4198211425  MEMB      304             0.0000000000
     35588       304  POPC      C33            46.0514705012       17.4546233811      -14.0456971683  MEMB      304             0.0000000000
     35589       304  POPC      H3X            45.7488586797       16.9967715770      -13.0797166418  MEMB      304             0.0000000000
     35590       304  POPC      H3Y            46.3898181486       18.4833542977      -13.7975951975  MEMB      304             0.0000000000
     35591       304  POPC      C34            47.2008956067       16.5622641419      -14.6350220189  MEMB      304             0.0000000000
     35592       304  POPC      H4X            47.5849705314       16.9207166783      -15.6139598538  MEMB      304             0.0000000000
     35593       304  POPC      H4Y            46.6950707784       15.6074531350      -14.8934763732  MEMB      304             0.0000000000
     35594       304  POPC      C35            48.3331119637       16.3876165857      -13.5783395535  MEMB      304             0.0000000000
     35595       304  POPC      H5X            49.0199241638       15.6096195031      -13.9749883452  MEMB      304             0.0000000000
     35596       304  POPC      H5Y            48.0254152415       16.1771199625      -12.5317571819  MEMB      304             0.0000000000
     35597       304  POPC      C36            49.2114839611       17.6384661800      -13.4721549540  MEMB      304             0.0000000000
     35598       304  POPC      H6X            48.6608083398       18.5052924770      -13.0482571269  MEMB      304             0.0000000000
     35599       304  POPC      H6Y            49.5668509831       17.9729865012      -14.4702190020  MEMB      304             0.0000000000
     35600       304  POPC      C37            50.5158177081       17.4075052744      -12.5977953177  MEMB      304             0.0000000000
     35601       304  POPC      H7X            51.3017138989       18.1310473890      -12.9030411967  MEMB      304             0.0000000000
     35602       304  POPC      H7Y            51.0869946246       16.4680975556      -12.7577671156  MEMB      304             0.0000000000
     35603       304  POPC      C38            50.1464466001       17.5729000076      -11.0778669303  MEMB      304             0.0000000000
     35604       304  POPC      H8X            49.6271969892       16.6356273306      -10.7842330960  MEMB      304             0.0000000000
     35605       304  POPC      H8Y            49.4543204360       18.4063082797      -10.8314666869  MEMB      304             0.0000000000
     35606       304  POPC      C39            51.3808652372       17.7579163211      -10.1810389446  MEMB      304             0.0000000000
     35607       304  POPC      H9X            51.7488860306       18.7923654248      -10.3507336547  MEMB      304             0.0000000000
     35608       304  POPC      H9Y            52.1256444466       16.9749641035      -10.4391305589  MEMB      304             0.0000000000
     35609       304  POPC      C310           51.0805853484       17.6221494096       -8.6493632244  MEMB      304             0.0000000000
     35610       304  POPC      H10X           50.6126167562       16.6248809158       -8.5052040409  MEMB      304             0.0000000000
     35611       304  POPC      H10Y           50.3685832757       18.3563309941       -8.2153695452  MEMB      304             0.0000000000
     35612       304  POPC      C311           52.3000722173       17.8642092608       -7.7693706619  MEMB      304             0.0000000000
     35613       304  POPC      H11X           52.7205332760       18.8641865044       -8.0093258371  MEMB      304             0.0000000000
     35614       304  POPC      H11Y           53.0287674514       17.0332612986       -7.8827262178  MEMB      304             0.0000000000
     35615       304  POPC      C312           52.0903928213       17.6633183173       -6.1967308073  MEMB      304             0.0000000000
     35616       304  POPC      H12X           53.0677426280       17.9868749212       -5.7790953550  MEMB      304             0.0000000000
     35617       304  POPC      H12Y           51.7548344961       16.6393534160       -5.9261439287  MEMB      304             0.0000000000
     35618       304  POPC      C313           51.0637521070       18.6584123309       -5.5981818664  MEMB      304             0.0000000000
     35619       304  POPC      H13X           50.0406065597       18.3857541828       -5.9345617352  MEMB      304             0.0000000000
     35620       304  POPC      H13Y           51.4193427170       19.6624817233       -5.9139670655  MEMB      304             0.0000000000
     35621       304  POPC      C314           51.1178170900       18.7921982261       -4.0285974388  MEMB      304             0.0000000000
     35622       304  POPC      H14X           50.5503326004       19.7162148505       -3.7867786537  MEMB      304             0.0000000000
     35623       304  POPC      H14Y           52.2106161638       18.8843914625       -3.8508014031  MEMB      304             0.0000000000
     35624       304  POPC      C315           50.5867668818       17.6142515225       -3.2343166498  MEMB      304             0.0000000000
     35625       304  POPC      H15X           51.1811941080       17.6745119648       -2.2976485514  MEMB      304             0.0000000000
     35626       304  POPC      H15Y           50.8550767076       16.6559376416       -3.7282454082  MEMB      304             0.0000000000
     35627       304  POPC      C316           49.0365788171       17.7024490386       -2.9324877576  MEMB      304             0.0000000000
     35628       304  POPC      H16X           48.5646679244       16.7428933020       -2.6310354133  MEMB      304             0.0000000000
     35629       304  POPC      H16Y           48.4415178802       18.0256973420       -3.8132462921  MEMB      304             0.0000000000
     35630       304  POPC      H16Z           48.8404638794       18.3290646820       -2.0362663666  MEMB      304             0.0000000000
     35631       305  POPE      N              53.2492543803       -3.0258353211      -20.7349659177  MEMB      305             0.0000000000
     35632       305  POPE      HN1            52.7184705276       -3.7478936828      -21.2626972001  MEMB      305             0.0000000000
     35633       305  POPE      HN2            54.1784124352       -2.8434241652      -21.1650721294  MEMB      305             0.0000000000
     35634       305  POPE      HN3            53.5895149600       -3.3641872182      -19.8122846545  MEMB      305             0.0000000000
     35635       305  POPE      C12            52.5141637545       -1.7133286581      -20.5692762573  MEMB      305             0.0000000000
     35636       305  POPE      H12A           52.5546146271       -1.1770275321      -21.5414213624  MEMB      305             0.0000000000
     35637       305  POPE      H12B           53.0225881384       -1.0988981450      -19.7957772222  MEMB      305             0.0000000000
     35638       305  POPE      C11            51.0149456637       -1.9199023034      -20.3284633296  MEMB      305             0.0000000000
     35639       305  POPE      H11A           50.6146963968       -2.6792899519      -21.0337660277  MEMB      305             0.0000000000
     35640       305  POPE      H11B           50.4462082912       -1.0742055303      -20.7707933382  MEMB      305             0.0000000000
     35641       305  POPE      P              49.8360656400       -1.2721835223      -18.1034191960  MEMB      305             0.0000000000
     35642       305  POPE      O13            48.4972920231       -1.0322871176      -18.6424517989  MEMB      305             0.0000000000
     35643       305  POPE      O14            50.6037966127       -0.0498628331      -17.8565867222  MEMB      305             0.0000000000
     35644       305  POPE      O11            49.6850246226       -2.0406958867      -16.7118070498  MEMB      305             0.0000000000
     35645       305  POPE      O12            50.6244661125       -2.2881247689      -19.0530297320  MEMB      305             0.0000000000
     35646       305  POPE      C1             49.9323507141       -3.4435641642      -16.5967804201  MEMB      305             0.0000000000
     35647       305  POPE      HA             49.9440280788       -4.0135278743      -17.5503662093  MEMB      305             0.0000000000
     35648       305  POPE      HB             48.9883806834       -3.7990401443      -16.1310787234  MEMB      305             0.0000000000
     35649       305  POPE      C2             51.1311516059       -3.7053042612      -15.6826072670  MEMB      305             0.0000000000
     35650       305  POPE      HS             51.2662300020       -4.8039940386      -15.5879738454  MEMB      305             0.0000000000
     35651       305  POPE      O21            51.0449898583       -2.9814055307      -14.4400257790  MEMB      305             0.0000000000
     35652       305  POPE      C21            50.0785678315       -3.3677169185      -13.6130422954  MEMB      305             0.0000000000
     35653       305  POPE      O22            49.4323382150       -4.3586434531      -13.6550549490  MEMB      305             0.0000000000
     35654       305  POPE      C22            49.8887767263       -2.3480052345      -12.4883614738  MEMB      305             0.0000000000
     35655       305  POPE      H2R            49.7072505492       -1.3759919535      -12.9948784236  MEMB      305             0.0000000000
     35656       305  POPE      H2S            50.7332445791       -2.2535758372      -11.7726250771  MEMB      305             0.0000000000
     35657       305  POPE      C3             52.5026592154       -3.1964105493      -16.4095695707  MEMB      305             0.0000000000
     35658       305  POPE      HX             52.2287340777       -2.1417711967      -16.6264147304  MEMB      305             0.0000000000
     35659       305  POPE      HY             52.6102466577       -3.7933005796      -17.3404124018  MEMB      305             0.0000000000
     35660       305  POPE      O31            53.6539637277       -3.1508911182      -15.5178949567  MEMB      305             0.0000000000
     35661       305  POPE      C31            53.9206810749       -4.2596616252      -14.7719848593  MEMB      305             0.0000000000
     35662       305  POPE      O32            53.4054992168       -5.3943536066      -14.8509679925  MEMB      305             0.0000000000
     35663       305  POPE      C32            55.0369927828       -3.9723788756      -13.7028536912  MEMB      305             0.0000000000
     35664       305  POPE      H2X            55.4357924184       -2.9378467207      -13.7737273192  MEMB      305             0.0000000000
     35665       305  POPE      H2Y            55.7271246139       -4.8290721973      -13.8581459209  MEMB      305             0.0000000000
     35666       305  POPE      C23            48.6041083946       -2.6521803620      -11.8071159654  MEMB      305             0.0000000000
     35667       305  POPE      H3R            48.5199870510       -3.7110915753      -11.4816129473  MEMB      305             0.0000000000
     35668       305  POPE      H3S            47.7552226560       -2.6415372030      -12.5237748887  MEMB      305             0.0000000000
     35669       305  POPE      C24            48.2626092461       -1.7567657616      -10.6476666277  MEMB      305             0.0000000000
     35670       305  POPE      H4R            47.1548455571       -1.6804745068      -10.6107845660  MEMB      305             0.0000000000
     35671       305  POPE      H4S            48.5503592452       -0.7324311214      -10.9674470158  MEMB      305             0.0000000000
     35672       305  POPE      C25            48.8585610231       -2.1606194000       -9.3132270544  MEMB      305             0.0000000000
     35673       305  POPE      H5R            49.8322992104       -2.6731651667       -9.4663669321  MEMB      305             0.0000000000
     35674       305  POPE      H5S            48.1543833671       -2.8528054388       -8.8039789101  MEMB      305             0.0000000000
     35675       305  POPE      C26            49.1690118317       -0.9794886120       -8.3809727552  MEMB      305             0.0000000000
     35676       305  POPE      H6R            48.9868085016       -1.1724980104       -7.3021444265  MEMB      305             0.0000000000
     35677       305  POPE      H6S            48.3217258490       -0.3034720039       -8.6247527316  MEMB      305             0.0000000000
     35678       305  POPE      C27            50.4462705561       -0.2041609647       -8.6249055044  MEMB      305             0.0000000000
     35679       305  POPE      H7R            50.3190761569        0.5510429244       -9.4297718114  MEMB      305             0.0000000000
     35680       305  POPE      H7S            51.2338243721       -0.8652200931       -9.0457152920  MEMB      305             0.0000000000
     35681       305  POPE      C28            50.9088955266        0.5262502168       -7.3108273943  MEMB      305             0.0000000000
     35682       305  POPE      H8R            51.2107606194       -0.2651322314       -6.5918615574  MEMB      305             0.0000000000
     35683       305  POPE      H8S            50.0981698991        1.0989665411       -6.8117872609  MEMB      305             0.0000000000
     35684       305  POPE      C29            52.0502750490        1.3777931707       -7.5831915709  MEMB      305             0.0000000000
     35685       305  POPE      H91            51.9599415447        1.9071310299       -8.5432130069  MEMB      305             0.0000000000
     35686       305  POPE      C210           53.2471629910        1.5500965715       -6.9271917379  MEMB      305             0.0000000000
     35687       305  POPE      H101           53.9563004488        2.3150166815       -7.2765062033  MEMB      305             0.0000000000
     35688       305  POPE      C211           53.8525309623        0.8788110182       -5.7080405903  MEMB      305             0.0000000000
     35689       305  POPE      H11R           54.9503488939        0.7475446660       -5.8170619228  MEMB      305             0.0000000000
     35690       305  POPE      H11S           53.4862515606       -0.1569999668       -5.5429461668  MEMB      305             0.0000000000
     35691       305  POPE      C212           53.7134334356        1.6697661190       -4.3577504754  MEMB      305             0.0000000000
     35692       305  POPE      H12R           54.0317082245        2.7183977259       -4.5404917405  MEMB      305             0.0000000000
     35693       305  POPE      H12S           54.4295360830        1.2414189742       -3.6242403719  MEMB      305             0.0000000000
     35694       305  POPE      C213           52.3048405174        1.6844083526       -3.7163727541  MEMB      305             0.0000000000
     35695       305  POPE      H13R           51.5963062619        2.3645953499       -4.2356470368  MEMB      305             0.0000000000
     35696       305  POPE      H13S           52.4378688522        2.1303712460       -2.7075405648  MEMB      305             0.0000000000
     35697       305  POPE      C214           51.8539685348        0.1902416089       -3.4607167417  MEMB      305             0.0000000000
     35698       305  POPE      H14R           52.6643209621       -0.2942306145       -2.8751078241  MEMB      305             0.0000000000
     35699       305  POPE      H14S           51.7368644591       -0.3811005476       -4.4063250776  MEMB      305             0.0000000000
     35700       305  POPE      C215           50.4912685676        0.0042402883       -2.7482995537  MEMB      305             0.0000000000
     35701       305  POPE      H15R           49.7374518936        0.5807697946       -3.3259624598  MEMB      305             0.0000000000
     35702       305  POPE      H15S           50.6314907691        0.4028367560       -1.7207890958  MEMB      305             0.0000000000
     35703       305  POPE      C216           50.0714161925       -1.4919244149       -2.7486147981  MEMB      305             0.0000000000
     35704       305  POPE      H16R           50.2797635407       -1.8984184466       -3.7613708665  MEMB      305             0.0000000000
     35705       305  POPE      H16S           48.9690574115       -1.5873401132       -2.6485044191  MEMB      305             0.0000000000
     35706       305  POPE      C217           50.6456407525       -2.3126034460       -1.6451866257  MEMB      305             0.0000000000
     35707       305  POPE      H17R           50.5751562793       -1.6851916993       -0.7310167261  MEMB      305             0.0000000000
     35708       305  POPE      H17S           51.7140088988       -2.4333889205       -1.9250466817  MEMB      305             0.0000000000
     35709       305  POPE      C218           50.1167507507       -3.6813287301       -1.3831411062  MEMB      305             0.0000000000
     35710       305  POPE      H18R           49.1083842774       -3.6043575711       -0.9231482118  MEMB      305             0.0000000000
     35711       305  POPE      H18S           50.7402259995       -4.3437427994       -0.7453263577  MEMB      305             0.0000000000
     35712       305  POPE      H18T           50.0323071510       -4.2482452469       -2.3348734426  MEMB      305             0.0000000000
     35713       305  POPE      C33            54.4748155562       -4.2245910691      -12.2532659819  MEMB      305             0.0000000000
     35714       305  POPE      H3X            55.3612749859       -4.1813583795      -11.5849539476  MEMB      305             0.0000000000
     35715       305  POPE      H3Y            54.0459597594       -5.2487816617      -12.2153518525  MEMB      305             0.0000000000
     35716       305  POPE      C34            53.4338537267       -3.1373866336      -11.7394657086  MEMB      305             0.0000000000
     35717       305  POPE      H4X            52.4477230318       -3.2577169549      -12.2368465448  MEMB      305             0.0000000000
     35718       305  POPE      H4Y            53.7294135211       -2.1340235834      -12.1139357543  MEMB      305             0.0000000000
     35719       305  POPE      C35            53.2713329709       -3.2288861423      -10.1771700783  MEMB      305             0.0000000000
     35720       305  POPE      H5X            52.4831182389       -2.4850684836       -9.9326831436  MEMB      305             0.0000000000
     35721       305  POPE      H5Y            54.1677924087       -2.7974294902       -9.6826740696  MEMB      305             0.0000000000
     35722       305  POPE      C36            52.8631305444       -4.6119649127       -9.7874100025  MEMB      305             0.0000000000
     35723       305  POPE      H6X            53.7537649275       -5.2691673667       -9.8832030658  MEMB      305             0.0000000000
     35724       305  POPE      H6Y            52.0998653304       -5.0826791399      -10.4432876663  MEMB      305             0.0000000000
     35725       305  POPE      C37            52.1290479287       -4.5944177845       -8.4175456299  MEMB      305             0.0000000000
     35726       305  POPE      H7X            51.6276649741       -5.5403782004       -8.1207376284  MEMB      305             0.0000000000
     35727       305  POPE      H7Y            51.4029273373       -3.7553691930       -8.4729290517  MEMB      305             0.0000000000
     35728       305  POPE      C38            52.9961389101       -4.1675335088       -7.2276254357  MEMB      305             0.0000000000
     35729       305  POPE      H8X            53.2794679518       -3.1070204131       -7.3989664961  MEMB      305             0.0000000000
     35730       305  POPE      H8Y            53.8938873255       -4.7799757012       -6.9967935723  MEMB      305             0.0000000000
     35731       305  POPE      C39            52.1000860058       -4.2873056756       -5.9164709106  MEMB      305             0.0000000000
     35732       305  POPE      H9X            52.0347812811       -5.3918064176       -5.8158002054  MEMB      305             0.0000000000
     35733       305  POPE      H9Y            51.1011814222       -3.9030271512       -6.2145312033  MEMB      305             0.0000000000
     35734       305  POPE      C310           52.5795988364       -3.6883517336       -4.6266914688  MEMB      305             0.0000000000
     35735       305  POPE      H10X           51.7407875207       -3.6326335099       -3.9003222823  MEMB      305             0.0000000000
     35736       305  POPE      H10Y           52.7977383612       -2.6099476183       -4.7809006716  MEMB      305             0.0000000000
     35737       305  POPE      C311           53.7193843710       -4.3467409973       -3.8178902562  MEMB      305             0.0000000000
     35738       305  POPE      H11X           53.6561821099       -5.4501118260       -3.7043148183  MEMB      305             0.0000000000
     35739       305  POPE      H11Y           53.7391943611       -3.9709269559       -2.7725711808  MEMB      305             0.0000000000
     35740       305  POPE      C312           55.1324057038       -4.1168548139       -4.3735762552  MEMB      305             0.0000000000
     35741       305  POPE      H12X           55.1864496918       -4.7138266799       -5.3090036090  MEMB      305             0.0000000000
     35742       305  POPE      H12Y           55.8311835576       -4.4645197321       -3.5829059062  MEMB      305             0.0000000000
     35743       305  POPE      C313           55.6029659838       -2.7277523664       -4.7398484222  MEMB      305             0.0000000000
     35744       305  POPE      H13X           54.9513348637       -2.2582667629       -5.5074946905  MEMB      305             0.0000000000
     35745       305  POPE      H13Y           56.6010183202       -2.9994839173       -5.1452795754  MEMB      305             0.0000000000
     35746       305  POPE      C314           55.7294230009       -1.6601609856       -3.6315396372  MEMB      305             0.0000000000
     35747       305  POPE      H14X           54.7049273754       -1.3712668159       -3.3133105428  MEMB      305             0.0000000000
     35748       305  POPE      H14Y           56.2539106161       -0.7413692085       -3.9707381520  MEMB      305             0.0000000000
     35749       305  POPE      C315           56.5478092078       -2.0376836302       -2.3540578570  MEMB      305             0.0000000000
     35750       305  POPE      H15X           55.9120178037       -2.8073428417       -1.8664973404  MEMB      305             0.0000000000
     35751       305  POPE      H15Y           56.5748875894       -1.0747531308       -1.8005660842  MEMB      305             0.0000000000
     35752       305  POPE      C316           57.9286508190       -2.6562006280       -2.4171760473  MEMB      305             0.0000000000
     35753       305  POPE      H16X           58.2605756708       -2.9905700024       -1.4110230954  MEMB      305             0.0000000000
     35754       305  POPE      H16Y           58.7206022088       -1.9473710463       -2.7407416205  MEMB      305             0.0000000000
     35755       305  POPE      H16Z           57.9656177715       -3.5522935255       -3.0728979263  MEMB      305             0.0000000000
     35756       306  POPC      N             -53.1609711205       -3.3072093266      -20.4279859439  MEMB      306             0.0000000000
     35757       306  POPC      C12           -52.9180896070       -3.0230102642      -18.9326843439  MEMB      306             0.0000000000
     35758       306  POPC      H12A          -53.2816619545       -3.7573544011      -18.2291547041  MEMB      306             0.0000000000
     35759       306  POPC      H12B          -53.5344763479       -2.1456856142      -18.8031894460  MEMB      306             0.0000000000
     35760       306  POPC      C13           -52.4146723280       -2.3145645367      -21.2982536931  MEMB      306             0.0000000000
     35761       306  POPC      H13A          -51.4138166133       -2.1833605154      -20.9142310485  MEMB      306             0.0000000000
     35762       306  POPC      H13B          -52.4806012941       -2.6210896962      -22.3317408241  MEMB      306             0.0000000000
     35763       306  POPC      H13C          -53.0657601769       -1.4529343444      -21.2894140240  MEMB      306             0.0000000000
     35764       306  POPC      C14           -52.5841771157       -4.7105177493      -20.7632956459  MEMB      306             0.0000000000
     35765       306  POPC      H14A          -51.6290837079       -4.8073863799      -20.2685096848  MEMB      306             0.0000000000
     35766       306  POPC      H14B          -53.2775390012       -5.4800726182      -20.4576252513  MEMB      306             0.0000000000
     35767       306  POPC      H14C          -52.5431927148       -4.7883373083      -21.8397084865  MEMB      306             0.0000000000
     35768       306  POPC      C15           -54.6574387177       -3.2872182713      -20.6380904042  MEMB      306             0.0000000000
     35769       306  POPC      H15A          -54.9234449712       -2.2516234041      -20.7903524797  MEMB      306             0.0000000000
     35770       306  POPC      H15B          -55.2232086678       -3.6774854676      -19.8050261643  MEMB      306             0.0000000000
     35771       306  POPC      H15C          -54.9350118975       -3.8933692366      -21.4877573247  MEMB      306             0.0000000000
     35772       306  POPC      C11           -51.4269616008       -2.7115387141      -18.5745616985  MEMB      306             0.0000000000
     35773       306  POPC      H11A          -51.5752736168       -2.5177355428      -17.4906960097  MEMB      306             0.0000000000
     35774       306  POPC      H11B          -51.1097898126       -1.7629142762      -19.0581263793  MEMB      306             0.0000000000
     35775       306  POPC      P             -49.7623942317       -4.5729503362      -17.6608035368  MEMB      306             0.0000000000
     35776       306  POPC      O13           -49.0025241208       -3.5976582001      -16.9352792104  MEMB      306             0.0000000000
     35777       306  POPC      O14           -48.9939510977       -5.7171643010      -18.1482294398  MEMB      306             0.0000000000
     35778       306  POPC      O12           -50.5857894123       -3.8531906572      -18.8417672310  MEMB      306             0.0000000000
     35779       306  POPC      O11           -51.0413595306       -5.1131411286      -16.7790488543  MEMB      306             0.0000000000
     35780       306  POPC      C1            -51.8979461611       -6.1303982065      -17.3256969226  MEMB      306             0.0000000000
     35781       306  POPC      HA            -51.2673240156       -6.8687791975      -17.8655397337  MEMB      306             0.0000000000
     35782       306  POPC      HB            -52.7145631722       -5.7917118404      -17.9985632282  MEMB      306             0.0000000000
     35783       306  POPC      C2            -52.6884028106       -6.7728790583      -16.1800546475  MEMB      306             0.0000000000
     35784       306  POPC      HS            -53.4149359979       -7.5007645403      -16.6003564434  MEMB      306             0.0000000000
     35785       306  POPC      O21           -53.5292829292       -5.6770491424      -15.5459865350  MEMB      306             0.0000000000
     35786       306  POPC      C21           -54.5073703362       -5.1331700101      -16.2966916480  MEMB      306             0.0000000000
     35787       306  POPC      O22           -54.9301776554       -5.5883706368      -17.3605856281  MEMB      306             0.0000000000
     35788       306  POPC      C22           -55.1118384216       -3.9044799733      -15.5572222530  MEMB      306             0.0000000000
     35789       306  POPC      H2R           -55.4216422269       -4.1144406288      -14.5111540075  MEMB      306             0.0000000000
     35790       306  POPC      H2S           -56.0083531850       -3.5125500769      -16.0835047151  MEMB      306             0.0000000000
     35791       306  POPC      C3            -51.7981020349       -7.3672496058      -15.0936047575  MEMB      306             0.0000000000
     35792       306  POPC      HX            -51.2311701455       -8.2590558720      -15.4365197155  MEMB      306             0.0000000000
     35793       306  POPC      HY            -52.3658620075       -7.6837083686      -14.1925923741  MEMB      306             0.0000000000
     35794       306  POPC      O31           -50.7770773020       -6.4548205690      -14.6081398941  MEMB      306             0.0000000000
     35795       306  POPC      C31           -49.9733050856       -7.0805132470      -13.6902895787  MEMB      306             0.0000000000
     35796       306  POPC      O32           -49.9112913478       -8.2191483337      -13.3708909750  MEMB      306             0.0000000000
     35797       306  POPC      C32           -49.1133079834       -5.9753988451      -13.1710138913  MEMB      306             0.0000000000
     35798       306  POPC      H2X           -49.3425903685       -4.9358986869      -13.4891176438  MEMB      306             0.0000000000
     35799       306  POPC      H2Y           -48.0795820179       -6.2991030334      -13.4178885504  MEMB      306             0.0000000000
     35800       306  POPC      C23           -54.0470406386       -2.7489960133      -15.5496636757  MEMB      306             0.0000000000
     35801       306  POPC      H3R           -54.3880208189       -2.0832121027      -16.3711168706  MEMB      306             0.0000000000
     35802       306  POPC      H3S           -53.0204078324       -3.1222209649      -15.7522695729  MEMB      306             0.0000000000
     35803       306  POPC      C24           -54.0561358044       -1.9520188131      -14.2515467516  MEMB      306             0.0000000000
     35804       306  POPC      H4R           -55.1026658098       -1.7735842825      -13.9240453636  MEMB      306             0.0000000000
     35805       306  POPC      H4S           -53.5381102942       -0.9860821410      -14.4330329540  MEMB      306             0.0000000000
     35806       306  POPC      C25           -53.3238760072       -2.7442889775      -13.0983651312  MEMB      306             0.0000000000
     35807       306  POPC      H5R           -52.3665255966       -3.2175800689      -13.4046277080  MEMB      306             0.0000000000
     35808       306  POPC      H5S           -53.8832650241       -3.6626056764      -12.8189029202  MEMB      306             0.0000000000
     35809       306  POPC      C26           -53.0200290091       -1.9076442097      -11.8521517820  MEMB      306             0.0000000000
     35810       306  POPC      H6R           -52.5516513575       -0.9115641524      -12.0030430491  MEMB      306             0.0000000000
     35811       306  POPC      H6S           -52.2840430460       -2.5032262199      -11.2708365591  MEMB      306             0.0000000000
     35812       306  POPC      C27           -54.3711415685       -1.7482244380      -10.9954915968  MEMB      306             0.0000000000
     35813       306  POPC      H7R           -55.0492733584       -2.5012293620      -11.4509493138  MEMB      306             0.0000000000
     35814       306  POPC      H7S           -54.6263856496       -0.6729525387      -11.1093422916  MEMB      306             0.0000000000
     35815       306  POPC      C28           -54.2879842969       -1.8733432537       -9.4264574458  MEMB      306             0.0000000000
     35816       306  POPC      H8R           -54.2523419086       -2.9630676499       -9.2130292891  MEMB      306             0.0000000000
     35817       306  POPC      H8S           -55.2824471144       -1.5363727324       -9.0633926964  MEMB      306             0.0000000000
     35818       306  POPC      C29           -53.4105196720       -0.9287601705       -8.7765426733  MEMB      306             0.0000000000
     35819       306  POPC      H91           -53.1847428208       -0.0844410385       -9.4444881852  MEMB      306             0.0000000000
     35820       306  POPC      C210          -52.8327885700       -1.0368237944       -7.6581071331  MEMB      306             0.0000000000
     35821       306  POPC      H101          -52.4003239686       -0.1535034681       -7.1654406067  MEMB      306             0.0000000000
     35822       306  POPC      C211          -52.9604288593       -2.2788675830       -6.8267518461  MEMB      306             0.0000000000
     35823       306  POPC      H11R          -52.0152490102       -2.4204753122       -6.2602684577  MEMB      306             0.0000000000
     35824       306  POPC      H11S          -53.0808181140       -3.2093099206       -7.4218184106  MEMB      306             0.0000000000
     35825       306  POPC      C212          -54.2259466834       -2.4337572073       -5.9275341222  MEMB      306             0.0000000000
     35826       306  POPC      H12R          -55.0684621549       -2.0515881076       -6.5427051316  MEMB      306             0.0000000000
     35827       306  POPC      H12S          -54.0035499331       -1.8049189881       -5.0390393768  MEMB      306             0.0000000000
     35828       306  POPC      C213          -54.5713897091       -3.8847076592       -5.3373746531  MEMB      306             0.0000000000
     35829       306  POPC      H13R          -54.6194147349       -4.5834543842       -6.1997941854  MEMB      306             0.0000000000
     35830       306  POPC      H13S          -55.6087804078       -3.7267777111       -4.9724094932  MEMB      306             0.0000000000
     35831       306  POPC      C214          -53.6547014435       -4.4713344841       -4.2309145775  MEMB      306             0.0000000000
     35832       306  POPC      H14R          -53.7852438426       -3.7776175750       -3.3729889397  MEMB      306             0.0000000000
     35833       306  POPC      H14S          -52.5941548628       -4.3053291636       -4.5172789301  MEMB      306             0.0000000000
     35834       306  POPC      C215          -54.0003170923       -5.8765454774       -3.7443096210  MEMB      306             0.0000000000
     35835       306  POPC      H15R          -53.6883632789       -6.6252065311       -4.5035940030  MEMB      306             0.0000000000
     35836       306  POPC      H15S          -55.0924012772       -5.9569782231       -3.5566829341  MEMB      306             0.0000000000
     35837       306  POPC      C216          -53.3070413241       -6.1531498817       -2.3775638423  MEMB      306             0.0000000000
     35838       306  POPC      H16R          -52.4226676436       -5.4861505074       -2.2920290192  MEMB      306             0.0000000000
     35839       306  POPC      H16S          -52.9113102721       -7.1531138812       -2.0986562761  MEMB      306             0.0000000000
     35840       306  POPC      C217          -54.2631852025       -5.7669814060       -1.2389999380  MEMB      306             0.0000000000
     35841       306  POPC      H17R          -55.2573555519       -6.2619347175       -1.2701049988  MEMB      306             0.0000000000
     35842       306  POPC      H17S          -54.5313529765       -4.7181523056       -1.4887289785  MEMB      306             0.0000000000
     35843       306  POPC      C218          -53.6246318390       -5.9115572382        0.2461771675  MEMB      306             0.0000000000
     35844       306  POPC      H18R          -52.7852172512       -5.2579762118        0.5663908803  MEMB      306             0.0000000000
     35845       306  POPC      H18S          -53.3798812251       -6.9763911498        0.4475423290  MEMB      306             0.0000000000
     35846       306  POPC      H18T          -54.4774684666       -5.5219635234        0.8421698417  MEMB      306             0.0000000000
     35847       306  POPC      C33           -49.0967193747       -6.0537340337      -11.6408628233  MEMB      306             0.0000000000
     35848       306  POPC      H3X           -48.2033814003       -6.6327537646      -11.3230509329  MEMB      306             0.0000000000
     35849       306  POPC      H3Y           -50.0791424530       -6.3263176817      -11.1994292765  MEMB      306             0.0000000000
     35850       306  POPC      C34           -48.9295819274       -4.5953577930      -11.0815864049  MEMB      306             0.0000000000
     35851       306  POPC      H4X           -49.7696781181       -3.8923367540      -11.2668453448  MEMB      306             0.0000000000
     35852       306  POPC      H4Y           -48.1052767237       -4.1127451193      -11.6489725672  MEMB      306             0.0000000000
     35853       306  POPC      C35           -48.5950771834       -4.6209650076       -9.5864220696  MEMB      306             0.0000000000
     35854       306  POPC      H5X           -48.4358332264       -3.5941396365       -9.1932404160  MEMB      306             0.0000000000
     35855       306  POPC      H5Y           -47.6976771706       -5.2313421756       -9.3488637906  MEMB      306             0.0000000000
     35856       306  POPC      C36           -49.6842368827       -5.1211633112       -8.6485772431  MEMB      306             0.0000000000
     35857       306  POPC      H6X           -49.8544319206       -6.1880949409       -8.9074429415  MEMB      306             0.0000000000
     35858       306  POPC      H6Y           -50.5757973874       -4.4731081865       -8.7880946137  MEMB      306             0.0000000000
     35859       306  POPC      C37           -49.4256114277       -4.9842360608       -7.1100145954  MEMB      306             0.0000000000
     35860       306  POPC      H7X           -49.4294883446       -3.9380599445       -6.7360874414  MEMB      306             0.0000000000
     35861       306  POPC      H7Y           -48.4702547967       -5.4811868655       -6.8367849308  MEMB      306             0.0000000000
     35862       306  POPC      C38           -50.5023020903       -5.6937555590       -6.1627480248  MEMB      306             0.0000000000
     35863       306  POPC      H8X           -50.6972561863       -6.6867471451       -6.6213130261  MEMB      306             0.0000000000
     35864       306  POPC      H8Y           -51.4706571661       -5.1544188151       -6.2384143222  MEMB      306             0.0000000000
     35865       306  POPC      C39           -50.1132035518       -5.8726499546       -4.6993857361  MEMB      306             0.0000000000
     35866       306  POPC      H9X           -49.3135660201       -6.6435712595       -4.6752816217  MEMB      306             0.0000000000
     35867       306  POPC      H9Y           -50.9500845887       -6.2816796714       -4.0938731368  MEMB      306             0.0000000000
     35868       306  POPC      C310          -49.6166843611       -4.5917679876       -4.1420031995  MEMB      306             0.0000000000
     35869       306  POPC      H10X          -50.3751407557       -3.7995804144       -4.3194954655  MEMB      306             0.0000000000
     35870       306  POPC      H10Y          -48.7004109396       -4.1812386442       -4.6176381432  MEMB      306             0.0000000000
     35871       306  POPC      C311          -49.2993661217       -4.6641171719       -2.6022473009  MEMB      306             0.0000000000
     35872       306  POPC      H11X          -48.6040782017       -5.5285169505       -2.5413439225  MEMB      306             0.0000000000
     35873       306  POPC      H11Y          -50.1966057808       -4.9288334445       -2.0029070557  MEMB      306             0.0000000000
     35874       306  POPC      C312          -48.8566040035       -3.3361806618       -1.8245225939  MEMB      306             0.0000000000
     35875       306  POPC      H12X          -49.3245337211       -2.5084067661       -2.3991112631  MEMB      306             0.0000000000
     35876       306  POPC      H12Y          -47.7913045171       -3.2396142304       -1.5243009359  MEMB      306             0.0000000000
     35877       306  POPC      C313          -49.6679632923       -3.1781305135       -0.4565656715  MEMB      306             0.0000000000
     35878       306  POPC      H13X          -49.3689093252       -2.3407755297        0.2095614307  MEMB      306             0.0000000000
     35879       306  POPC      H13Y          -49.4883709105       -4.1212844588        0.1024775571  MEMB      306             0.0000000000
     35880       306  POPC      C314          -51.1979729902       -3.0761488663       -0.5898460949  MEMB      306             0.0000000000
     35881       306  POPC      H14X          -51.7161173782       -4.0411663833       -0.7758259651  MEMB      306             0.0000000000
     35882       306  POPC      H14Y          -51.5087215279       -2.4704327256       -1.4678350173  MEMB      306             0.0000000000
     35883       306  POPC      C315          -51.9262797835       -2.3658266505        0.5547177666  MEMB      306             0.0000000000
     35884       306  POPC      H15X          -51.5609130304       -1.3445239838        0.7950694646  MEMB      306             0.0000000000
     35885       306  POPC      H15Y          -51.6907279649       -2.9875589268        1.4448211881  MEMB      306             0.0000000000
     35886       306  POPC      C316          -53.4811645880       -2.2509252735        0.3317885006  MEMB      306             0.0000000000
     35887       306  POPC      H16X          -53.8346490003       -1.1978277078        0.3506065551  MEMB      306             0.0000000000
     35888       306  POPC      H16Y          -54.0125894935       -2.8709303067        1.0851166809  MEMB      306             0.0000000000
     35889       306  POPC      H16Z          -53.7441828813       -2.8308219700       -0.5786294515  MEMB      306             0.0000000000
     35890       307  POPE      N              39.5667954484      -27.0536203403      -16.7111223138  MEMB      307             0.0000000000
     35891       307  POPE      HN1            39.5546086154      -26.1557981069      -16.1863686271  MEMB      307             0.0000000000
     35892       307  POPE      HN2            39.4549657396      -27.9112968572      -16.1336405404  MEMB      307             0.0000000000
     35893       307  POPE      HN3            40.3450226561      -27.1571465554      -17.3932109039  MEMB      307             0.0000000000
     35894       307  POPE      C12            38.1576383160      -26.9240413427      -17.4400503050  MEMB      307             0.0000000000
     35895       307  POPE      H12A           38.1689530783      -25.8408351272      -17.6867425166  MEMB      307             0.0000000000
     35896       307  POPE      H12B           37.3377831480      -27.0606013254      -16.7028190640  MEMB      307             0.0000000000
     35897       307  POPE      C11            37.9732803773      -27.7011561553      -18.7764993213  MEMB      307             0.0000000000
     35898       307  POPE      H11A           38.5688742521      -27.1738667182      -19.5520989887  MEMB      307             0.0000000000
     35899       307  POPE      H11B           36.8931768297      -27.5398832104      -18.9806768596  MEMB      307             0.0000000000
     35900       307  POPE      P              38.3440724987      -30.0030433029      -19.8723182211  MEMB      307             0.0000000000
     35901       307  POPE      O13            38.9033524789      -29.2638695483      -21.0949421982  MEMB      307             0.0000000000
     35902       307  POPE      O14            37.0250176547      -30.6034276717      -20.0009935260  MEMB      307             0.0000000000
     35903       307  POPE      O11            39.4584993634      -31.0863543936      -19.4751657223  MEMB      307             0.0000000000
     35904       307  POPE      O12            38.3198286644      -29.0644208429      -18.6289083996  MEMB      307             0.0000000000
     35905       307  POPE      C1             39.5058360842      -32.4119499512      -20.0232329095  MEMB      307             0.0000000000
     35906       307  POPE      HA             39.8279506012      -32.3780791510      -21.0859727528  MEMB      307             0.0000000000
     35907       307  POPE      HB             38.4475517788      -32.7496817498      -20.0403321777  MEMB      307             0.0000000000
     35908       307  POPE      C2             40.2418039139      -33.3921493876      -19.1407465302  MEMB      307             0.0000000000
     35909       307  POPE      HS             39.8485885636      -34.3833032290      -19.4527030340  MEMB      307             0.0000000000
     35910       307  POPE      O21            39.9316401215      -33.0851520978      -17.7208027782  MEMB      307             0.0000000000
     35911       307  POPE      C21            38.6631543676      -33.0385507889      -17.2549689736  MEMB      307             0.0000000000
     35912       307  POPE      O22            37.6281400639      -33.2644762896      -17.8839090357  MEMB      307             0.0000000000
     35913       307  POPE      C22            38.7666127552      -32.5375355138      -15.7775447022  MEMB      307             0.0000000000
     35914       307  POPE      H2R            39.2897780085      -33.2822827365      -15.1403860995  MEMB      307             0.0000000000
     35915       307  POPE      H2S            37.7245877006      -32.4819949147      -15.3962048656  MEMB      307             0.0000000000
     35916       307  POPE      C3             41.7341894604      -33.2876419199      -19.3629936438  MEMB      307             0.0000000000
     35917       307  POPE      HX             42.0064049756      -33.4762450844      -20.4234881442  MEMB      307             0.0000000000
     35918       307  POPE      HY             42.3449145931      -33.9894979320      -18.7557590441  MEMB      307             0.0000000000
     35919       307  POPE      O31            42.1777674539      -31.9325643259      -19.1072475735  MEMB      307             0.0000000000
     35920       307  POPE      C31            42.6033034436      -31.5695484756      -17.8720444114  MEMB      307             0.0000000000
     35921       307  POPE      O32            42.5301331783      -32.3052681627      -16.9061201483  MEMB      307             0.0000000000
     35922       307  POPE      C32            43.2659154453      -30.2089039176      -17.8811622408  MEMB      307             0.0000000000
     35923       307  POPE      H2X            42.7428069859      -29.5472958251      -18.6043171126  MEMB      307             0.0000000000
     35924       307  POPE      H2Y            44.2868261685      -30.3408165899      -18.2990875341  MEMB      307             0.0000000000
     35925       307  POPE      C23            39.4173096179      -31.1316565540      -15.8167219679  MEMB      307             0.0000000000
     35926       307  POPE      H3R            38.9660828696      -30.4776262011      -16.5932267771  MEMB      307             0.0000000000
     35927       307  POPE      H3S            40.4595711361      -31.3781681450      -16.1120927127  MEMB      307             0.0000000000
     35928       307  POPE      C24            39.2179024856      -30.2373646006      -14.6115969746  MEMB      307             0.0000000000
     35929       307  POPE      H4R            39.4251733353      -29.1782477016      -14.8754743561  MEMB      307             0.0000000000
     35930       307  POPE      H4S            39.9292624786      -30.3937282902      -13.7726466045  MEMB      307             0.0000000000
     35931       307  POPE      C25            37.8391761517      -30.2863290107      -14.0491511858  MEMB      307             0.0000000000
     35932       307  POPE      H5R            37.8164683576      -31.0105836240      -13.2069748102  MEMB      307             0.0000000000
     35933       307  POPE      H5S            37.1487124386      -30.5480754750      -14.8792532676  MEMB      307             0.0000000000
     35934       307  POPE      C26            37.4430988568      -28.8579444551      -13.6652782924  MEMB      307             0.0000000000
     35935       307  POPE      H6R            37.4674900786      -28.1579959467      -14.5277157043  MEMB      307             0.0000000000
     35936       307  POPE      H6S            38.3241217431      -28.5338689318      -13.0710603256  MEMB      307             0.0000000000
     35937       307  POPE      C27            36.2044729519      -28.6186126016      -12.8026707206  MEMB      307             0.0000000000
     35938       307  POPE      H7R            36.2857186112      -28.9325918047      -11.7400621132  MEMB      307             0.0000000000
     35939       307  POPE      H7S            35.4771269248      -29.2584709260      -13.3466102110  MEMB      307             0.0000000000
     35940       307  POPE      C28            35.7863401308      -27.1352924109      -12.8489617952  MEMB      307             0.0000000000
     35941       307  POPE      H8R            34.8873173161      -27.0677126152      -12.1997223868  MEMB      307             0.0000000000
     35942       307  POPE      H8S            35.2659649210      -26.8790315694      -13.7965166789  MEMB      307             0.0000000000
     35943       307  POPE      C29            36.9699742265      -26.2239021401      -12.5905528549  MEMB      307             0.0000000000
     35944       307  POPE      H91            37.8188808243      -26.3245202822      -13.2828195326  MEMB      307             0.0000000000
     35945       307  POPE      C210           37.1234270359      -25.4814869589      -11.4739307445  MEMB      307             0.0000000000
     35946       307  POPE      H101           37.9032916864      -24.7073211357      -11.4241422351  MEMB      307             0.0000000000
     35947       307  POPE      C211           36.1770506057      -25.4591122035      -10.3131381444  MEMB      307             0.0000000000
     35948       307  POPE      H11R           35.4649161005      -26.3083813784      -10.3901291562  MEMB      307             0.0000000000
     35949       307  POPE      H11S           35.6270029938      -24.4941344344      -10.3373434823  MEMB      307             0.0000000000
     35950       307  POPE      C212           36.8576150279      -25.5124228007       -8.9059194278  MEMB      307             0.0000000000
     35951       307  POPE      H12R           36.0122146352      -25.4365590312       -8.1890766908  MEMB      307             0.0000000000
     35952       307  POPE      H12S           37.4848709351      -24.6243151866       -8.6775861231  MEMB      307             0.0000000000
     35953       307  POPE      C213           37.4185710476      -26.9554975673       -8.6657486381  MEMB      307             0.0000000000
     35954       307  POPE      H13R           38.2094088606      -27.2446957386       -9.3904971276  MEMB      307             0.0000000000
     35955       307  POPE      H13S           36.6205310697      -27.6685672681       -8.9640511774  MEMB      307             0.0000000000
     35956       307  POPE      C214           37.9100210924      -27.2815740360       -7.2069622676  MEMB      307             0.0000000000
     35957       307  POPE      H14R           38.7881071690      -26.6348698724       -6.9946911879  MEMB      307             0.0000000000
     35958       307  POPE      H14S           38.3154636955      -28.3149986194       -7.2513586109  MEMB      307             0.0000000000
     35959       307  POPE      C215           36.8770984415      -27.1694128334       -6.1329036803  MEMB      307             0.0000000000
     35960       307  POPE      H15R           35.9755513106      -27.6774529972       -6.5371678252  MEMB      307             0.0000000000
     35961       307  POPE      H15S           36.5362161784      -26.1120861977       -6.1194536828  MEMB      307             0.0000000000
     35962       307  POPE      C216           37.3451771216      -27.6763964525       -4.7378855660  MEMB      307             0.0000000000
     35963       307  POPE      H16R           37.7037267022      -28.7204369065       -4.8633559373  MEMB      307             0.0000000000
     35964       307  POPE      H16S           36.4738911695      -27.6133443772       -4.0514408873  MEMB      307             0.0000000000
     35965       307  POPE      C217           38.4147842261      -26.9296120398       -4.0122066255  MEMB      307             0.0000000000
     35966       307  POPE      H17R           37.8881586880      -26.0049786070       -3.6927705344  MEMB      307             0.0000000000
     35967       307  POPE      H17S           39.3030503912      -26.6604406202       -4.6228219421  MEMB      307             0.0000000000
     35968       307  POPE      C218           38.8598323916      -27.4078980273       -2.6223780243  MEMB      307             0.0000000000
     35969       307  POPE      H18R           39.1112662618      -28.4900626197       -2.6177192349  MEMB      307             0.0000000000
     35970       307  POPE      H18S           37.9064049514      -27.4310936996       -2.0525013699  MEMB      307             0.0000000000
     35971       307  POPE      H18T           39.6199335772      -26.7231552212       -2.1891387581  MEMB      307             0.0000000000
     35972       307  POPE      C33            43.3485204572      -29.5980738554      -16.4802983471  MEMB      307             0.0000000000
     35973       307  POPE      H3X            44.1647345319      -30.1355170442      -15.9518378160  MEMB      307             0.0000000000
     35974       307  POPE      H3Y            42.3791755898      -29.7421506807      -15.9569115714  MEMB      307             0.0000000000
     35975       307  POPE      C34            43.8195638791      -28.1476590543      -16.4231353363  MEMB      307             0.0000000000
     35976       307  POPE      H4X            43.1204123033      -27.3741460596      -16.8067834750  MEMB      307             0.0000000000
     35977       307  POPE      H4Y            44.7060147716      -28.0659183811      -17.0878488927  MEMB      307             0.0000000000
     35978       307  POPE      C35            44.2674419720      -27.7591868666      -14.9815190412  MEMB      307             0.0000000000
     35979       307  POPE      H5X            44.4924181074      -26.6719330055      -14.9416959907  MEMB      307             0.0000000000
     35980       307  POPE      H5Y            45.2333268137      -28.2680649054      -14.7755317146  MEMB      307             0.0000000000
     35981       307  POPE      C36            43.2060563873      -28.2742530312      -13.9255737292  MEMB      307             0.0000000000
     35982       307  POPE      H6X            43.2890889904      -29.3806873556      -13.8687434015  MEMB      307             0.0000000000
     35983       307  POPE      H6Y            42.1510739041      -28.0383818732      -14.1818897178  MEMB      307             0.0000000000
     35984       307  POPE      C37            43.4493166428      -27.6438037917      -12.5933408825  MEMB      307             0.0000000000
     35985       307  POPE      H7X            43.4292744828      -26.5329978860      -12.5987854361  MEMB      307             0.0000000000
     35986       307  POPE      H7Y            44.4349003747      -27.8292414206      -12.1152628177  MEMB      307             0.0000000000
     35987       307  POPE      C38            42.4229751044      -28.0424499315      -11.4791272783  MEMB      307             0.0000000000
     35988       307  POPE      H8X            41.3571957355      -27.7700801481      -11.6348507131  MEMB      307             0.0000000000
     35989       307  POPE      H8Y            42.6732187584      -27.4156310441      -10.5966325215  MEMB      307             0.0000000000
     35990       307  POPE      C39            42.3533418453      -29.5972699515      -11.0997119253  MEMB      307             0.0000000000
     35991       307  POPE      H9X            43.3334105273      -30.0990573303      -10.9514026889  MEMB      307             0.0000000000
     35992       307  POPE      H9Y            41.8776750070      -30.0840339471      -11.9778477842  MEMB      307             0.0000000000
     35993       307  POPE      C310           41.5293223758      -29.8814767657       -9.8843721002  MEMB      307             0.0000000000
     35994       307  POPE      H10X           41.7385030591      -30.9560478064       -9.6950004129  MEMB      307             0.0000000000
     35995       307  POPE      H10Y           40.4627412669      -29.5716896907       -9.8568453528  MEMB      307             0.0000000000
     35996       307  POPE      C311           42.1779740188      -29.2793026474       -8.5700161888  MEMB      307             0.0000000000
     35997       307  POPE      H11X           42.0614735781      -28.1764808758       -8.6373423195  MEMB      307             0.0000000000
     35998       307  POPE      H11Y           43.2875801142      -29.3146866064       -8.6129472673  MEMB      307             0.0000000000
     35999       307  POPE      C312           41.6059167173      -29.7654800342       -7.2565608844  MEMB      307             0.0000000000
     36000       307  POPE      H12X           41.6461271893      -30.8608206131       -7.0750857525  MEMB      307             0.0000000000
     36001       307  POPE      H12Y           40.5107203075      -29.5790964553       -7.2452807343  MEMB      307             0.0000000000
     36002       307  POPE      C313           42.3295773231      -29.1021882168       -6.0378919600  MEMB      307             0.0000000000
     36003       307  POPE      H13X           42.1750312407      -28.0064652749       -5.9387566473  MEMB      307             0.0000000000
     36004       307  POPE      H13Y           43.4145171841      -29.1245064916       -6.2760688123  MEMB      307             0.0000000000
     36005       307  POPE      C314           41.9469052110      -29.8452221486       -4.7236747483  MEMB      307             0.0000000000
     36006       307  POPE      H14X           42.0197871700      -30.9208529835       -4.9920546586  MEMB      307             0.0000000000
     36007       307  POPE      H14Y           40.8559009201      -29.6606323498       -4.6238882048  MEMB      307             0.0000000000
     36008       307  POPE      C315           42.7852240452      -29.4399139499       -3.4420132499  MEMB      307             0.0000000000
     36009       307  POPE      H15X           43.8678829899      -29.6330653768       -3.5996933987  MEMB      307             0.0000000000
     36010       307  POPE      H15Y           42.5182053454      -30.1441815653       -2.6252941577  MEMB      307             0.0000000000
     36011       307  POPE      C316           42.5073175348      -28.0126656293       -2.8460296689  MEMB      307             0.0000000000
     36012       307  POPE      H16X           42.6710548599      -27.1987448704       -3.5842996432  MEMB      307             0.0000000000
     36013       307  POPE      H16Y           43.1113840684      -27.7302020338       -1.9574121641  MEMB      307             0.0000000000
     36014       307  POPE      H16Z           41.4233584073      -27.9779534548       -2.6048894152  MEMB      307             0.0000000000
     36015       308  POPE      N              55.7416017026       11.7493604049      -19.8078108920  MEMB      308             0.0000000000
     36016       308  POPE      HN1            55.0197931574       11.0019096687      -19.8515150656  MEMB      308             0.0000000000
     36017       308  POPE      HN2            56.4699006320       11.5287538070      -20.5166926808  MEMB      308             0.0000000000
     36018       308  POPE      HN3            56.1393130920       11.8160857276      -18.8491799382  MEMB      308             0.0000000000
     36019       308  POPE      C12            55.1125781977       12.9745743541      -20.3450491499  MEMB      308             0.0000000000
     36020       308  POPE      H12A           54.6630255572       12.7073633882      -21.3252642766  MEMB      308             0.0000000000
     36021       308  POPE      H12B           55.9489419118       13.6869934478      -20.5102024868  MEMB      308             0.0000000000
     36022       308  POPE      C11            54.0079635728       13.4675358713      -19.3593333108  MEMB      308             0.0000000000
     36023       308  POPE      H11A           53.5886820221       14.4699573583      -19.5910125057  MEMB      308             0.0000000000
     36024       308  POPE      H11B           54.4210839428       13.4962227632      -18.3283970856  MEMB      308             0.0000000000
     36025       308  POPE      P              52.4284459700       11.5542405758      -18.5242815372  MEMB      308             0.0000000000
     36026       308  POPE      O13            53.1261326656       10.2225295254      -18.6717205152  MEMB      308             0.0000000000
     36027       308  POPE      O14            50.9832716833       11.3659128378      -18.5404751838  MEMB      308             0.0000000000
     36028       308  POPE      O11            52.8876389917       12.2514362996      -17.1701847748  MEMB      308             0.0000000000
     36029       308  POPE      O12            52.8847800103       12.6392661614      -19.5811446545  MEMB      308             0.0000000000
     36030       308  POPE      C1             52.6111957028       11.5602639582      -15.9833142955  MEMB      308             0.0000000000
     36031       308  POPE      HA             53.3539116643       11.9243909180      -15.2416232013  MEMB      308             0.0000000000
     36032       308  POPE      HB             52.6269619139       10.4494394523      -15.9714296118  MEMB      308             0.0000000000
     36033       308  POPE      C2             51.2385026409       11.9589243756      -15.3406196257  MEMB      308             0.0000000000
     36034       308  POPE      HS             50.3828199984       11.6546246739      -15.9805648190  MEMB      308             0.0000000000
     36035       308  POPE      O21            51.2879193115       13.3109969857      -15.1169336564  MEMB      308             0.0000000000
     36036       308  POPE      C21            50.4162298136       13.8642012945      -14.2260216851  MEMB      308             0.0000000000
     36037       308  POPE      O22            49.3332502464       13.3988189532      -13.8845026666  MEMB      308             0.0000000000
     36038       308  POPE      C22            51.1201763613       15.0483530303      -13.6054522746  MEMB      308             0.0000000000
     36039       308  POPE      H2R            50.7847969259       15.9895463281      -14.0912470046  MEMB      308             0.0000000000
     36040       308  POPE      H2S            52.2237638825       15.0517568398      -13.7335317949  MEMB      308             0.0000000000
     36041       308  POPE      C3             51.1222064390       11.1088420901      -14.0031499750  MEMB      308             0.0000000000
     36042       308  POPE      HX             51.0426823087       10.0497805871      -14.3293181216  MEMB      308             0.0000000000
     36043       308  POPE      HY             50.2470058820       11.3706178576      -13.3708381244  MEMB      308             0.0000000000
     36044       308  POPE      O31            52.2781499172       11.2588175821      -13.1760192991  MEMB      308             0.0000000000
     36045       308  POPE      C31            52.5653869776       10.3109008856      -12.4309777629  MEMB      308             0.0000000000
     36046       308  POPE      O32            51.8964589795        9.3133901074      -12.1990230874  MEMB      308             0.0000000000
     36047       308  POPE      C32            53.9152933222       10.5945461616      -11.7979523557  MEMB      308             0.0000000000
     36048       308  POPE      H2X            54.5839412009       11.1075058081      -12.5219023651  MEMB      308             0.0000000000
     36049       308  POPE      H2Y            54.3208988622        9.5791898391      -11.6008318102  MEMB      308             0.0000000000
     36050       308  POPE      C23            50.7908321692       15.2901422065      -12.1365596919  MEMB      308             0.0000000000
     36051       308  POPE      H3R            49.7022572349       15.1918836675      -11.9373838436  MEMB      308             0.0000000000
     36052       308  POPE      H3S            51.0918738451       16.3415797251      -11.9411779904  MEMB      308             0.0000000000
     36053       308  POPE      C24            51.7454567648       14.5061952946      -11.3008549474  MEMB      308             0.0000000000
     36054       308  POPE      H4R            52.7936841764       14.6278820218      -11.6483207960  MEMB      308             0.0000000000
     36055       308  POPE      H4S            51.4607647266       13.4385096105      -11.4162612706  MEMB      308             0.0000000000
     36056       308  POPE      C25            51.6107198087       14.7643407276       -9.7801987140  MEMB      308             0.0000000000
     36057       308  POPE      H5R            52.0811637086       15.7280795254       -9.4900076608  MEMB      308             0.0000000000
     36058       308  POPE      H5S            52.2401394133       13.9861556128       -9.2979334782  MEMB      308             0.0000000000
     36059       308  POPE      C26            50.2232191057       14.4658689020       -9.1195336604  MEMB      308             0.0000000000
     36060       308  POPE      H6R            49.6048769047       13.8076774786       -9.7666487523  MEMB      308             0.0000000000
     36061       308  POPE      H6S            49.7193046822       15.4551601877       -9.1606965483  MEMB      308             0.0000000000
     36062       308  POPE      C27            50.2370925244       13.8483536003       -7.7601690698  MEMB      308             0.0000000000
     36063       308  POPE      H7R            50.6106172091       12.8046743073       -7.8345593220  MEMB      308             0.0000000000
     36064       308  POPE      H7S            49.1318430918       13.8768460653       -7.6509286859  MEMB      308             0.0000000000
     36065       308  POPE      C28            50.9757075408       14.6086335072       -6.7005120733  MEMB      308             0.0000000000
     36066       308  POPE      H8R            50.9258962927       15.7076668845       -6.8553199955  MEMB      308             0.0000000000
     36067       308  POPE      H8S            52.0668515922       14.5815143209       -6.9078528722  MEMB      308             0.0000000000
     36068       308  POPE      C29            50.6621421224       14.1831463542       -5.2814425199  MEMB      308             0.0000000000
     36069       308  POPE      H91            49.8193388101       14.7595609084       -4.8722617729  MEMB      308             0.0000000000
     36070       308  POPE      C210           51.2003760097       13.1065786428       -4.7711683531  MEMB      308             0.0000000000
     36071       308  POPE      H101           50.8079483732       12.8395843444       -3.7788403485  MEMB      308             0.0000000000
     36072       308  POPE      C211           52.1988713275       12.1304299889       -5.3298852334  MEMB      308             0.0000000000
     36073       308  POPE      H11R           52.8014840933       12.5502337816       -6.1635182497  MEMB      308             0.0000000000
     36074       308  POPE      H11S           51.6423971070       11.2168387479       -5.6299005467  MEMB      308             0.0000000000
     36075       308  POPE      C212           53.1100534048       11.6111310309       -4.1153076859  MEMB      308             0.0000000000
     36076       308  POPE      H12R           53.7347178457       10.7376303106       -4.4001097027  MEMB      308             0.0000000000
     36077       308  POPE      H12S           52.3844600588       11.2394427799       -3.3605340707  MEMB      308             0.0000000000
     36078       308  POPE      C213           53.9837549794       12.7153777534       -3.4803303603  MEMB      308             0.0000000000
     36079       308  POPE      H13R           53.3658566718       13.4664145200       -2.9432395295  MEMB      308             0.0000000000
     36080       308  POPE      H13S           54.5186434838       13.3517996289       -4.2173391398  MEMB      308             0.0000000000
     36081       308  POPE      C214           54.9699455568       12.2755597831       -2.4133774872  MEMB      308             0.0000000000
     36082       308  POPE      H14R           55.6868736359       13.0165972227       -1.9996151919  MEMB      308             0.0000000000
     36083       308  POPE      H14S           55.6704914368       11.5637728229       -2.9001177902  MEMB      308             0.0000000000
     36084       308  POPE      C215           54.3981735292       11.6915925323       -1.0830598274  MEMB      308             0.0000000000
     36085       308  POPE      H15R           53.7760925295       10.7722476719       -1.1293261664  MEMB      308             0.0000000000
     36086       308  POPE      H15S           53.6997602623       12.4172309552       -0.6140299021  MEMB      308             0.0000000000
     36087       308  POPE      C216           55.5271608003       11.4923829441       -0.0174447968  MEMB      308             0.0000000000
     36088       308  POPE      H16R           55.5683256373       12.3902282385        0.6356257147  MEMB      308             0.0000000000
     36089       308  POPE      H16S           56.5213417025       11.5108593656       -0.5130093097  MEMB      308             0.0000000000
     36090       308  POPE      C217           55.3943836517       10.2146725031        0.8644560910  MEMB      308             0.0000000000
     36091       308  POPE      H17R           56.3454246838       10.0347094761        1.4098522214  MEMB      308             0.0000000000
     36092       308  POPE      H17S           55.2976514975        9.3451714212        0.1796701378  MEMB      308             0.0000000000
     36093       308  POPE      C218           54.1605484159       10.2330049906        1.8654592544  MEMB      308             0.0000000000
     36094       308  POPE      H18R           54.0370307847        9.2331137487        2.3337353093  MEMB      308             0.0000000000
     36095       308  POPE      H18S           53.2231903266       10.3793509665        1.2873046308  MEMB      308             0.0000000000
     36096       308  POPE      H18T           54.0734596517       11.1178675722        2.5316081706  MEMB      308             0.0000000000
     36097       308  POPE      C33            53.6961455057       11.2897744660      -10.3986776822  MEMB      308             0.0000000000
     36098       308  POPE      H3X            53.0692624878       10.6783207940       -9.7149649378  MEMB      308             0.0000000000
     36099       308  POPE      H3Y            52.9829058074       12.1401391406      -10.4485773751  MEMB      308             0.0000000000
     36100       308  POPE      C34            55.0537288232       11.7244215682       -9.7933963393  MEMB      308             0.0000000000
     36101       308  POPE      H4X            55.4135382422       12.5955861375      -10.3815550739  MEMB      308             0.0000000000
     36102       308  POPE      H4Y            55.7510361075       10.8735204149       -9.9484785408  MEMB      308             0.0000000000
     36103       308  POPE      C35            54.9571933081       12.0950113000       -8.3258900976  MEMB      308             0.0000000000
     36104       308  POPE      H5X            55.1279832991       11.2223604632       -7.6598332120  MEMB      308             0.0000000000
     36105       308  POPE      H5Y            53.9502854106       12.4793259067       -8.0561497235  MEMB      308             0.0000000000
     36106       308  POPE      C36            55.9014279081       13.2403688530       -7.9212054859  MEMB      308             0.0000000000
     36107       308  POPE      H6X            56.8320531770       13.2879828841       -8.5261770704  MEMB      308             0.0000000000
     36108       308  POPE      H6Y            56.2724894967       12.9574596244       -6.9129414482  MEMB      308             0.0000000000
     36109       308  POPE      C37            55.2544296588       14.6302679695       -8.0163004279  MEMB      308             0.0000000000
     36110       308  POPE      H7X            54.2157989256       14.4697563118       -8.3765823856  MEMB      308             0.0000000000
     36111       308  POPE      H7Y            55.6830540710       15.3125801207       -8.7811876375  MEMB      308             0.0000000000
     36112       308  POPE      C38            54.9876624150       15.3224259189       -6.6661869558  MEMB      308             0.0000000000
     36113       308  POPE      H8X            54.9994201917       14.6336439730       -5.7945438271  MEMB      308             0.0000000000
     36114       308  POPE      H8Y            54.0102851473       15.8268629133       -6.8230264501  MEMB      308             0.0000000000
     36115       308  POPE      C39            56.0027781161       16.4614037046       -6.5078989275  MEMB      308             0.0000000000
     36116       308  POPE      H9X            56.1714207598       17.0271753689       -7.4490597838  MEMB      308             0.0000000000
     36117       308  POPE      H9Y            56.9474802117       16.1249514266       -6.0297170309  MEMB      308             0.0000000000
     36118       308  POPE      C310           55.4045454304       17.5149279964       -5.5907993354  MEMB      308             0.0000000000
     36119       308  POPE      H10X           54.5701170444       18.1029578110       -6.0292865857  MEMB      308             0.0000000000
     36120       308  POPE      H10Y           56.1876461125       18.2940976254       -5.4726089382  MEMB      308             0.0000000000
     36121       308  POPE      C311           54.6808631596       17.0655692888       -4.2778774751  MEMB      308             0.0000000000
     36122       308  POPE      H11X           55.5049977488       16.7407338920       -3.6073509329  MEMB      308             0.0000000000
     36123       308  POPE      H11Y           53.9160854192       16.3019670645       -4.5354582720  MEMB      308             0.0000000000
     36124       308  POPE      C312           53.9541632150       18.2810024235       -3.6049210749  MEMB      308             0.0000000000
     36125       308  POPE      H12X           53.5345629978       18.9492376741       -4.3870443980  MEMB      308             0.0000000000
     36126       308  POPE      H12Y           54.7179948120       18.8710296633       -3.0546937333  MEMB      308             0.0000000000
     36127       308  POPE      C313           52.8565892295       18.0815825594       -2.5677849959  MEMB      308             0.0000000000
     36128       308  POPE      H13X           51.9532450494       17.8325278368       -3.1646611107  MEMB      308             0.0000000000
     36129       308  POPE      H13Y           52.8206646279       19.0663650207       -2.0547213591  MEMB      308             0.0000000000
     36130       308  POPE      C314           53.0773358745       16.9915190335       -1.5439132700  MEMB      308             0.0000000000
     36131       308  POPE      H14X           54.0864731002       17.1103657692       -1.0946489754  MEMB      308             0.0000000000
     36132       308  POPE      H14Y           53.0890290442       16.0227268799       -2.0876280026  MEMB      308             0.0000000000
     36133       308  POPE      C315           52.0549595447       16.7694575323       -0.4820492159  MEMB      308             0.0000000000
     36134       308  POPE      H15X           52.0009688677       17.7217681126        0.0876081009  MEMB      308             0.0000000000
     36135       308  POPE      H15Y           52.2459805263       16.0653507945        0.3558431624  MEMB      308             0.0000000000
     36136       308  POPE      C316           50.6409520695       16.4807396495       -1.0087506338  MEMB      308             0.0000000000
     36137       308  POPE      H16X           50.6228243501       15.4738291322       -1.4779236813  MEMB      308             0.0000000000
     36138       308  POPE      H16Y           50.3788845519       17.3048567550       -1.7062257764  MEMB      308             0.0000000000
     36139       308  POPE      H16Z           49.8901389838       16.4829337999       -0.1898507385  MEMB      308             0.0000000000
     36140       309  POPE      N              48.9806159297       30.7020562514      -17.2612440764  MEMB      309             0.0000000000
     36141       309  POPE      HN1            47.9512899850       30.6711553698      -17.1158712698  MEMB      309             0.0000000000
     36142       309  POPE      HN2            49.3821667838       30.8642650040      -16.3157044272  MEMB      309             0.0000000000
     36143       309  POPE      HN3            49.2280733377       31.4663089606      -17.9217610107  MEMB      309             0.0000000000
     36144       309  POPE      C12            49.3736246320       29.3758277788      -17.6755656303  MEMB      309             0.0000000000
     36145       309  POPE      H12A           49.4303745659       28.7293019702      -16.7738423611  MEMB      309             0.0000000000
     36146       309  POPE      H12B           50.4227263335       29.4344371050      -18.0364970761  MEMB      309             0.0000000000
     36147       309  POPE      C11            48.4755176568       28.9130822218      -18.7865996657  MEMB      309             0.0000000000
     36148       309  POPE      H11A           48.2971707695       29.7363958834      -19.5109392380  MEMB      309             0.0000000000
     36149       309  POPE      H11B           47.4139420020       28.7362041436      -18.5107512843  MEMB      309             0.0000000000
     36150       309  POPE      P              48.4982295135       26.4062957299      -19.7458189204  MEMB      309             0.0000000000
     36151       309  POPE      O13            49.5150707401       25.4963310999      -20.2339036205  MEMB      309             0.0000000000
     36152       309  POPE      O14            47.2588437037       26.5816680009      -20.5530677910  MEMB      309             0.0000000000
     36153       309  POPE      O11            48.0161936198       26.0228258407      -18.2773363056  MEMB      309             0.0000000000
     36154       309  POPE      O12            49.1041578042       27.8470010745      -19.4664639896  MEMB      309             0.0000000000
     36155       309  POPE      C1             47.5766095327       24.6381047128      -18.1318807207  MEMB      309             0.0000000000
     36156       309  POPE      HA             48.2494550437       23.8462674244      -18.5250646245  MEMB      309             0.0000000000
     36157       309  POPE      HB             46.6273859099       24.3930248763      -18.6545960011  MEMB      309             0.0000000000
     36158       309  POPE      C2             47.3829052867       24.3617972577      -16.6373409863  MEMB      309             0.0000000000
     36159       309  POPE      HS             46.8139771275       23.4117815694      -16.5472736953  MEMB      309             0.0000000000
     36160       309  POPE      O21            46.7188965409       25.4428406912      -15.9789042360  MEMB      309             0.0000000000
     36161       309  POPE      C21            46.1783859716       25.2147187530      -14.7662481823  MEMB      309             0.0000000000
     36162       309  POPE      O22            46.2539815881       24.1853153071      -14.1554559922  MEMB      309             0.0000000000
     36163       309  POPE      C22            45.5514916424       26.4942223251      -14.2665147250  MEMB      309             0.0000000000
     36164       309  POPE      H2R            44.6316696556       26.1618871027      -13.7394454434  MEMB      309             0.0000000000
     36165       309  POPE      H2S            45.3401823466       27.1461720173      -15.1409466579  MEMB      309             0.0000000000
     36166       309  POPE      C3             48.7711560434       24.0925539653      -15.9071091361  MEMB      309             0.0000000000
     36167       309  POPE      HX             48.9604353668       23.1624707065      -16.4845516902  MEMB      309             0.0000000000
     36168       309  POPE      HY             48.7623024293       23.8326501899      -14.8269735436  MEMB      309             0.0000000000
     36169       309  POPE      O31            49.7616842162       25.0381314757      -16.2581445812  MEMB      309             0.0000000000
     36170       309  POPE      C31            50.0868979428       25.7905306761      -15.2333542225  MEMB      309             0.0000000000
     36171       309  POPE      O32            49.6102029578       25.7830293875      -14.1320698128  MEMB      309             0.0000000000
     36172       309  POPE      C32            51.1760538232       26.7842076280      -15.6633035673  MEMB      309             0.0000000000
     36173       309  POPE      H2X            50.7861897128       27.2946123949      -16.5698429383  MEMB      309             0.0000000000
     36174       309  POPE      H2Y            52.0602985311       26.2229562617      -16.0340182279  MEMB      309             0.0000000000
     36175       309  POPE      C23            46.3885809465       27.3008427429      -13.3152684159  MEMB      309             0.0000000000
     36176       309  POPE      H3R            47.3006454617       27.6814626563      -13.8227996263  MEMB      309             0.0000000000
     36177       309  POPE      H3S            46.7497237427       26.7570637682      -12.4162681618  MEMB      309             0.0000000000
     36178       309  POPE      C24            45.6696251814       28.5637623757      -12.7324355625  MEMB      309             0.0000000000
     36179       309  POPE      H4R            44.7536828894       28.3408951721      -12.1444720774  MEMB      309             0.0000000000
     36180       309  POPE      H4S            45.3662495551       29.1316567234      -13.6378528668  MEMB      309             0.0000000000
     36181       309  POPE      C25            46.5510077951       29.4523104240      -11.8357461109  MEMB      309             0.0000000000
     36182       309  POPE      H5R            47.1096232159       28.8462571542      -11.0907833587  MEMB      309             0.0000000000
     36183       309  POPE      H5S            45.7274992896       29.9488430184      -11.2793196748  MEMB      309             0.0000000000
     36184       309  POPE      C26            47.4239645931       30.5472396604      -12.5155880725  MEMB      309             0.0000000000
     36185       309  POPE      H6R            46.9818284366       31.5547471305      -12.3614275925  MEMB      309             0.0000000000
     36186       309  POPE      H6S            47.3994395558       30.3117708670      -13.6010714665  MEMB      309             0.0000000000
     36187       309  POPE      C27            48.8378297493       30.7175410958      -12.0262516025  MEMB      309             0.0000000000
     36188       309  POPE      H7R            49.4855005179       31.3685483969      -12.6515776051  MEMB      309             0.0000000000
     36189       309  POPE      H7S            49.2760587607       29.7111079595      -11.8548777805  MEMB      309             0.0000000000
     36190       309  POPE      C28            48.9196075233       31.4147098607      -10.6390796921  MEMB      309             0.0000000000
     36191       309  POPE      H8R            48.1891277117       30.9222144122       -9.9621985134  MEMB      309             0.0000000000
     36192       309  POPE      H8S            48.6259440806       32.4721335199      -10.8121068993  MEMB      309             0.0000000000
     36193       309  POPE      C29            50.2981520925       31.4625906386      -10.0377990467  MEMB      309             0.0000000000
     36194       309  POPE      H91            50.9682210107       31.9381377367      -10.7691415901  MEMB      309             0.0000000000
     36195       309  POPE      C210           50.8850634872       30.9764166321       -8.8816258687  MEMB      309             0.0000000000
     36196       309  POPE      H101           51.9562983253       31.2021744687       -8.7744363062  MEMB      309             0.0000000000
     36197       309  POPE      C211           50.2583578091       30.2150702988       -7.8163388053  MEMB      309             0.0000000000
     36198       309  POPE      H11R           51.0285942725       29.5428289548       -7.3814272020  MEMB      309             0.0000000000
     36199       309  POPE      H11S           49.3315586732       29.7328172332       -8.1942219460  MEMB      309             0.0000000000
     36200       309  POPE      C212           49.6757496822       31.2788884348       -6.8380783107  MEMB      309             0.0000000000
     36201       309  POPE      H12R           48.8694192280       31.8185875178       -7.3792589528  MEMB      309             0.0000000000
     36202       309  POPE      H12S           50.3536103280       32.1155839801       -6.5646433105  MEMB      309             0.0000000000
     36203       309  POPE      C213           49.0706168043       30.7167112236       -5.6141095874  MEMB      309             0.0000000000
     36204       309  POPE      H13R           48.2956180576       29.9588933513       -5.8578510179  MEMB      309             0.0000000000
     36205       309  POPE      H13S           48.5896776111       31.5135810144       -5.0074650318  MEMB      309             0.0000000000
     36206       309  POPE      C214           50.0841122259       30.0068485082       -4.6458064980  MEMB      309             0.0000000000
     36207       309  POPE      H14R           50.3803263576       29.0300684367       -5.0845307126  MEMB      309             0.0000000000
     36208       309  POPE      H14S           49.6052318017       29.9162926663       -3.6474108387  MEMB      309             0.0000000000
     36209       309  POPE      C215           51.3634574336       30.7271581798       -4.3126127034  MEMB      309             0.0000000000
     36210       309  POPE      H15R           51.1331716035       31.5439440944       -3.5955690790  MEMB      309             0.0000000000
     36211       309  POPE      H15S           51.7547620736       31.1693000444       -5.2537355344  MEMB      309             0.0000000000
     36212       309  POPE      C216           52.4364821511       29.7411945079       -3.5342938695  MEMB      309             0.0000000000
     36213       309  POPE      H16R           52.8041789344       28.8340606750       -4.0598675889  MEMB      309             0.0000000000
     36214       309  POPE      H16S           51.7670677481       29.4811875745       -2.6865902129  MEMB      309             0.0000000000
     36215       309  POPE      C217           53.6850583785       30.4138477229       -2.9131027908  MEMB      309             0.0000000000
     36216       309  POPE      H17R           54.1708214927       29.6196569643       -2.3067901224  MEMB      309             0.0000000000
     36217       309  POPE      H17S           53.3044275786       31.2662443512       -2.3107230741  MEMB      309             0.0000000000
     36218       309  POPE      C218           54.6377919609       30.9645656716       -3.9941341284  MEMB      309             0.0000000000
     36219       309  POPE      H18R           55.5425433823       31.3863139061       -3.5064109818  MEMB      309             0.0000000000
     36220       309  POPE      H18S           54.3384581273       31.8817448349       -4.5450452770  MEMB      309             0.0000000000
     36221       309  POPE      H18T           54.8567749599       30.1342194251       -4.6990401546  MEMB      309             0.0000000000
     36222       309  POPE      C33            51.5520773121       27.7881383013      -14.5965239007  MEMB      309             0.0000000000
     36223       309  POPE      H3X            50.6116669649       28.3550822285      -14.4276334400  MEMB      309             0.0000000000
     36224       309  POPE      H3Y            52.2174836483       28.5290695416      -15.0890442879  MEMB      309             0.0000000000
     36225       309  POPE      C34            52.2097290095       27.1956696566      -13.3026355285  MEMB      309             0.0000000000
     36226       309  POPE      H4X            53.2777485319       27.4986419884      -13.2594694526  MEMB      309             0.0000000000
     36227       309  POPE      H4Y            52.1156176425       26.0888404962      -13.2828060956  MEMB      309             0.0000000000
     36228       309  POPE      C35            51.5952762991       27.9151122973      -12.0432099075  MEMB      309             0.0000000000
     36229       309  POPE      H5X            51.3231154992       28.9861582077      -12.1577102249  MEMB      309             0.0000000000
     36230       309  POPE      H5Y            52.3312705343       27.8605500516      -11.2127549514  MEMB      309             0.0000000000
     36231       309  POPE      C36            50.3372635621       27.3032042063      -11.2817094768  MEMB      309             0.0000000000
     36232       309  POPE      H6X            49.4536940243       27.2719847905      -11.9545032266  MEMB      309             0.0000000000
     36233       309  POPE      H6Y            50.1033777041       28.0367529455      -10.4807568508  MEMB      309             0.0000000000
     36234       309  POPE      C37            50.5730601247       25.8667284691      -10.6909834494  MEMB      309             0.0000000000
     36235       309  POPE      H7X            51.2584525663       25.9269396972       -9.8186694183  MEMB      309             0.0000000000
     36236       309  POPE      H7Y            50.9104050438       25.3220404403      -11.5986369582  MEMB      309             0.0000000000
     36237       309  POPE      C38            49.1849603787       25.2281221758      -10.3350132197  MEMB      309             0.0000000000
     36238       309  POPE      H8X            49.5307696433       24.2019958189      -10.0864137964  MEMB      309             0.0000000000
     36239       309  POPE      H8Y            48.4568470975       25.2508303136      -11.1738556726  MEMB      309             0.0000000000
     36240       309  POPE      C39            48.4194137360       25.9015121581       -9.1472658187  MEMB      309             0.0000000000
     36241       309  POPE      H9X            47.4757697025       25.3203533374       -9.0690909745  MEMB      309             0.0000000000
     36242       309  POPE      H9Y            48.1824545824       26.9426359602       -9.4542392312  MEMB      309             0.0000000000
     36243       309  POPE      C310           49.2493729966       25.7150306933       -7.8266054797  MEMB      309             0.0000000000
     36244       309  POPE      H10X           50.3010294185       26.0536429388       -7.9435736335  MEMB      309             0.0000000000
     36245       309  POPE      H10Y           49.3737900420       24.6628082054       -7.4924361684  MEMB      309             0.0000000000
     36246       309  POPE      C311           48.4429298189       26.5690871402       -6.8296567633  MEMB      309             0.0000000000
     36247       309  POPE      H11X           47.3627271237       26.3222272259       -6.9105493083  MEMB      309             0.0000000000
     36248       309  POPE      H11Y           48.5848547956       27.6154469438       -7.1750687069  MEMB      309             0.0000000000
     36249       309  POPE      C312           48.9616967343       26.4439216727       -5.3483576063  MEMB      309             0.0000000000
     36250       309  POPE      H12X           48.3962896653       27.1718418228       -4.7280609781  MEMB      309             0.0000000000
     36251       309  POPE      H12Y           50.0001508053       26.7660505131       -5.1199573651  MEMB      309             0.0000000000
     36252       309  POPE      C313           48.8429676474       25.0253750945       -4.7813171862  MEMB      309             0.0000000000
     36253       309  POPE      H13X           49.4584248801       24.2355232624       -5.2626354473  MEMB      309             0.0000000000
     36254       309  POPE      H13Y           47.7754592250       24.7355008232       -4.8848523482  MEMB      309             0.0000000000
     36255       309  POPE      C314           49.1980592482       24.9988318630       -3.2879370570  MEMB      309             0.0000000000
     36256       309  POPE      H14X           50.3037367643       25.1040565428       -3.2609965559  MEMB      309             0.0000000000
     36257       309  POPE      H14Y           48.9819061340       23.9995931872       -2.8530565106  MEMB      309             0.0000000000
     36258       309  POPE      C315           48.5740483790       25.9970514016       -2.3042551746  MEMB      309             0.0000000000
     36259       309  POPE      H15X           47.5097353568       25.7219323099       -2.1434188642  MEMB      309             0.0000000000
     36260       309  POPE      H15Y           48.6460735783       27.0240028224       -2.7219919694  MEMB      309             0.0000000000
     36261       309  POPE      C316           49.2926871406       25.9171095950       -0.9548434310  MEMB      309             0.0000000000
     36262       309  POPE      H16X           49.1778875214       24.8834170681       -0.5641752803  MEMB      309             0.0000000000
     36263       309  POPE      H16Y           48.8292297710       26.7126409555       -0.3330263699  MEMB      309             0.0000000000
     36264       309  POPE      H16Z           50.3457153763       26.2267351303       -1.1268457284  MEMB      309             0.0000000000
     36265       310  POPE      N             -38.6950836967       29.9927140776      -22.4579511096  MEMB      310             0.0000000000
     36266       310  POPE      HN1           -38.3978258073       30.7937017976      -23.0509571208  MEMB      310             0.0000000000
     36267       310  POPE      HN2           -38.3378463487       29.1076983786      -22.8711444344  MEMB      310             0.0000000000
     36268       310  POPE      HN3           -39.7258792765       29.9068675038      -22.5660751737  MEMB      310             0.0000000000
     36269       310  POPE      C12           -38.1806870197       30.1893595105      -21.0465883891  MEMB      310             0.0000000000
     36270       310  POPE      H12A          -38.4141336345       31.2104039251      -20.6760590296  MEMB      310             0.0000000000
     36271       310  POPE      H12B          -37.0725893027       30.1566603783      -21.1198768457  MEMB      310             0.0000000000
     36272       310  POPE      C11           -38.5956323100       29.1496163805      -19.9588620202  MEMB      310             0.0000000000
     36273       310  POPE      H11A          -38.4825739360       28.1181170330      -20.3557850888  MEMB      310             0.0000000000
     36274       310  POPE      H11B          -39.6729892449       29.3055869663      -19.7368345716  MEMB      310             0.0000000000
     36275       310  POPE      P             -38.2063358261       30.3924409857      -17.6898177277  MEMB      310             0.0000000000
     36276       310  POPE      O13           -38.3158787526       31.7810182802      -18.3182643281  MEMB      310             0.0000000000
     36277       310  POPE      O14           -37.5207598052       30.2515164164      -16.3830357708  MEMB      310             0.0000000000
     36278       310  POPE      O11           -39.6714948480       29.9518649913      -17.3738538511  MEMB      310             0.0000000000
     36279       310  POPE      O12           -37.8025491299       29.3269216425      -18.7716268040  MEMB      310             0.0000000000
     36280       310  POPE      C1            -40.0047783382       28.5997295283      -17.1717010630  MEMB      310             0.0000000000
     36281       310  POPE      HA            -39.1032243047       28.0064139216      -17.4353257512  MEMB      310             0.0000000000
     36282       310  POPE      HB            -40.8309281527       28.3621104537      -17.8755012718  MEMB      310             0.0000000000
     36283       310  POPE      C2            -40.3799295265       28.3404997985      -15.6623906963  MEMB      310             0.0000000000
     36284       310  POPE      HS            -41.3167386380       28.9287526636      -15.5591033618  MEMB      310             0.0000000000
     36285       310  POPE      O21           -39.4980339449       29.0183728667      -14.8111424066  MEMB      310             0.0000000000
     36286       310  POPE      C21           -39.9112517341       29.1432499210      -13.5553568546  MEMB      310             0.0000000000
     36287       310  POPE      O22           -41.0217265834       28.9035142864      -13.1670451473  MEMB      310             0.0000000000
     36288       310  POPE      C22           -38.8070970089       29.9405669567      -12.8765908628  MEMB      310             0.0000000000
     36289       310  POPE      H2R           -39.1227064742       30.1224993078      -11.8270138885  MEMB      310             0.0000000000
     36290       310  POPE      H2S           -38.5889543363       30.8639938916      -13.4545334458  MEMB      310             0.0000000000
     36291       310  POPE      C3            -40.4377033997       26.8386979115      -15.3065428195  MEMB      310             0.0000000000
     36292       310  POPE      HX            -40.8500327395       26.3776442014      -16.2294377644  MEMB      310             0.0000000000
     36293       310  POPE      HY            -41.0682116253       26.4621587170      -14.4728772155  MEMB      310             0.0000000000
     36294       310  POPE      O31           -39.1241884773       26.3197673197      -15.1390856043  MEMB      310             0.0000000000
     36295       310  POPE      C31           -39.0608910311       25.1100638965      -14.5479279615  MEMB      310             0.0000000000
     36296       310  POPE      O32           -40.0388423830       24.4012100208      -14.3029971983  MEMB      310             0.0000000000
     36297       310  POPE      C32           -37.6226466691       24.7659856664      -14.0838539336  MEMB      310             0.0000000000
     36298       310  POPE      H2X           -37.0956719866       25.7295648517      -13.9161224473  MEMB      310             0.0000000000
     36299       310  POPE      H2Y           -37.1294456313       24.1053247952      -14.8285690311  MEMB      310             0.0000000000
     36300       310  POPE      C23           -37.5236805646       29.0355963899      -12.8283444042  MEMB      310             0.0000000000
     36301       310  POPE      H3R           -37.1025234596       28.7243626981      -13.8081817843  MEMB      310             0.0000000000
     36302       310  POPE      H3S           -37.8457428274       28.0774597464      -12.3672897876  MEMB      310             0.0000000000
     36303       310  POPE      C24           -36.3362334152       29.5320467170      -11.8525526624  MEMB      310             0.0000000000
     36304       310  POPE      H4R           -36.8047311533       29.8069108620      -10.8833881174  MEMB      310             0.0000000000
     36305       310  POPE      H4S           -35.8133507249       30.4023483339      -12.3036512685  MEMB      310             0.0000000000
     36306       310  POPE      C25           -35.3493161008       28.3845452981      -11.6069933926  MEMB      310             0.0000000000
     36307       310  POPE      H5R           -34.8368702824       27.9552190962      -12.4943487321  MEMB      310             0.0000000000
     36308       310  POPE      H5S           -35.8197842245       27.4709416811      -11.1847272788  MEMB      310             0.0000000000
     36309       310  POPE      C26           -34.1842001174       28.7935363679      -10.7289821855  MEMB      310             0.0000000000
     36310       310  POPE      H6R           -33.6177654818       29.5665282770      -11.2910819405  MEMB      310             0.0000000000
     36311       310  POPE      H6S           -33.6217318871       27.8370276354      -10.6738324510  MEMB      310             0.0000000000
     36312       310  POPE      C27           -34.5883667688       29.1388593681       -9.2706403179  MEMB      310             0.0000000000
     36313       310  POPE      H7R           -35.6054811576       28.7185581884       -9.1185026445  MEMB      310             0.0000000000
     36314       310  POPE      H7S           -34.5275139646       30.2432685760       -9.1662455961  MEMB      310             0.0000000000
     36315       310  POPE      C28           -33.6423845326       28.5925349817       -8.1728980241  MEMB      310             0.0000000000
     36316       310  POPE      H8R           -33.8958432737       29.2339312581       -7.3018696983  MEMB      310             0.0000000000
     36317       310  POPE      H8S           -32.6156605390       28.9477397935       -8.4052540229  MEMB      310             0.0000000000
     36318       310  POPE      C29           -33.5823904030       27.1114317219       -7.9966069091  MEMB      310             0.0000000000
     36319       310  POPE      H91           -33.4476880452       26.4805511714       -8.8875869043  MEMB      310             0.0000000000
     36320       310  POPE      C210          -33.5949197177       26.4203536016       -6.8323477865  MEMB      310             0.0000000000
     36321       310  POPE      H101          -33.8556814638       25.3518876267       -6.8519395730  MEMB      310             0.0000000000
     36322       310  POPE      C211          -33.7065127179       26.9320243532       -5.4039407557  MEMB      310             0.0000000000
     36323       310  POPE      H11R          -32.9722889763       27.7584185477       -5.2929942975  MEMB      310             0.0000000000
     36324       310  POPE      H11S          -33.4407934622       25.9902183571       -4.8779028961  MEMB      310             0.0000000000
     36325       310  POPE      C212          -35.1186331534       27.4412585964       -4.9560992531  MEMB      310             0.0000000000
     36326       310  POPE      H12R          -35.4268130377       28.3122869297       -5.5730728677  MEMB      310             0.0000000000
     36327       310  POPE      H12S          -35.0430187181       27.8893175450       -3.9422717577  MEMB      310             0.0000000000
     36328       310  POPE      C213          -36.0950338455       26.3116558005       -4.9243071195  MEMB      310             0.0000000000
     36329       310  POPE      H13R          -36.4005322713       26.0586862973       -5.9620924277  MEMB      310             0.0000000000
     36330       310  POPE      H13S          -37.0461798991       26.7325912293       -4.5338512276  MEMB      310             0.0000000000
     36331       310  POPE      C214          -35.9252770949       25.0253670434       -4.1825527893  MEMB      310             0.0000000000
     36332       310  POPE      H14R          -35.1480343625       24.4944659387       -4.7727714720  MEMB      310             0.0000000000
     36333       310  POPE      H14S          -36.8491047668       24.4316952924       -4.0139773619  MEMB      310             0.0000000000
     36334       310  POPE      C215          -35.3313769981       25.3102793028       -2.6592531293  MEMB      310             0.0000000000
     36335       310  POPE      H15R          -34.3902465523       25.8901408683       -2.7704040081  MEMB      310             0.0000000000
     36336       310  POPE      H15S          -34.9107838120       24.3814402664       -2.2180268993  MEMB      310             0.0000000000
     36337       310  POPE      C216          -36.3620109586       25.6683891146       -1.7038963319  MEMB      310             0.0000000000
     36338       310  POPE      H16R          -37.0237643816       24.8217841809       -1.4216474805  MEMB      310             0.0000000000
     36339       310  POPE      H16S          -37.0822544526       26.3207049628       -2.2424620547  MEMB      310             0.0000000000
     36340       310  POPE      C217          -35.7149567374       26.4508871642       -0.5144496400  MEMB      310             0.0000000000
     36341       310  POPE      H17R          -36.5018607550       26.7065300198        0.2270022323  MEMB      310             0.0000000000
     36342       310  POPE      H17S          -35.3269455845       27.4245506970       -0.8828896732  MEMB      310             0.0000000000
     36343       310  POPE      C218          -34.5431438020       25.6863439688        0.2089364812  MEMB      310             0.0000000000
     36344       310  POPE      H18R          -34.9187684259       24.8062466100        0.7734329002  MEMB      310             0.0000000000
     36345       310  POPE      H18S          -33.8710516825       26.3006965072        0.8454777024  MEMB      310             0.0000000000
     36346       310  POPE      H18T          -33.8763510787       25.3911249246       -0.6292484968  MEMB      310             0.0000000000
     36347       310  POPE      C33           -37.7381333064       23.9542181875      -12.7025969128  MEMB      310             0.0000000000
     36348       310  POPE      H3X           -36.6554450713       23.7686064062      -12.5362968912  MEMB      310             0.0000000000
     36349       310  POPE      H3Y           -38.3323819298       23.0176402891      -12.7659329276  MEMB      310             0.0000000000
     36350       310  POPE      C34           -38.1968555770       24.8261494101      -11.4992043841  MEMB      310             0.0000000000
     36351       310  POPE      H4X           -39.2908155617       24.9040850763      -11.6766829819  MEMB      310             0.0000000000
     36352       310  POPE      H4Y           -37.7918448539       25.8597354636      -11.5437871565  MEMB      310             0.0000000000
     36353       310  POPE      C35           -38.0164682674       24.2035458335      -10.0449052511  MEMB      310             0.0000000000
     36354       310  POPE      H5X           -36.9963041815       24.0037453506       -9.6529028172  MEMB      310             0.0000000000
     36355       310  POPE      H5Y           -38.5290620137       23.2233318120      -10.1485838472  MEMB      310             0.0000000000
     36356       310  POPE      C36           -38.8570934344       25.0491143705       -9.0894275822  MEMB      310             0.0000000000
     36357       310  POPE      H6X           -39.1651656068       24.5896006168       -8.1259658414  MEMB      310             0.0000000000
     36358       310  POPE      H6Y           -39.8038409487       25.1672429334       -9.6586693866  MEMB      310             0.0000000000
     36359       310  POPE      C37           -38.2157851921       26.4530218132       -8.7661604569  MEMB      310             0.0000000000
     36360       310  POPE      H7X           -38.2813737782       27.1884771046       -9.5962964549  MEMB      310             0.0000000000
     36361       310  POPE      H7Y           -37.1240521823       26.3371747133       -8.5958100033  MEMB      310             0.0000000000
     36362       310  POPE      C38           -38.7494087684       27.0862815940       -7.4612195626  MEMB      310             0.0000000000
     36363       310  POPE      H8X           -38.3796960811       28.1282889327       -7.3523427129  MEMB      310             0.0000000000
     36364       310  POPE      H8Y           -38.4691317290       26.4156391561       -6.6209786993  MEMB      310             0.0000000000
     36365       310  POPE      C39           -40.2758363358       27.2955603926       -7.3512267058  MEMB      310             0.0000000000
     36366       310  POPE      H9X           -40.7670953335       26.3193341662       -7.5511460197  MEMB      310             0.0000000000
     36367       310  POPE      H9Y           -40.5856972974       27.9730782854       -8.1754092108  MEMB      310             0.0000000000
     36368       310  POPE      C310          -40.7441534909       28.0054493815       -6.0165412034  MEMB      310             0.0000000000
     36369       310  POPE      H10X          -41.8438778538       27.9757878684       -5.8614684155  MEMB      310             0.0000000000
     36370       310  POPE      H10Y          -40.4798643092       29.0837181226       -5.9740077554  MEMB      310             0.0000000000
     36371       310  POPE      C311          -40.1127375710       27.4249903161       -4.6840987980  MEMB      310             0.0000000000
     36372       310  POPE      H11X          -40.2190692777       28.2354457348       -3.9316513709  MEMB      310             0.0000000000
     36373       310  POPE      H11Y          -39.0139311464       27.3284363130       -4.8168479830  MEMB      310             0.0000000000
     36374       310  POPE      C312          -40.6685880845       26.1226320916       -4.1745114168  MEMB      310             0.0000000000
     36375       310  POPE      H12X          -40.6339356479       25.4882200854       -5.0859071159  MEMB      310             0.0000000000
     36376       310  POPE      H12Y          -41.7526451102       26.2729913083       -3.9833740414  MEMB      310             0.0000000000
     36377       310  POPE      C313          -39.9304818502       25.5929638771       -3.0246489874  MEMB      310             0.0000000000
     36378       310  POPE      H13X          -38.8916620679       25.3274383200       -3.3156308172  MEMB      310             0.0000000000
     36379       310  POPE      H13Y          -40.4494498291       24.6658131458       -2.7000197133  MEMB      310             0.0000000000
     36380       310  POPE      C314          -39.8535982185       26.5050172970       -1.8295109358  MEMB      310             0.0000000000
     36381       310  POPE      H14X          -39.2993547662       27.3379313738       -2.3126155978  MEMB      310             0.0000000000
     36382       310  POPE      H14Y          -39.2409596845       26.0927377272       -0.9994384258  MEMB      310             0.0000000000
     36383       310  POPE      C315          -41.1800941856       27.0231592556       -1.2156827604  MEMB      310             0.0000000000
     36384       310  POPE      H15X          -41.7515488642       26.2087413205       -0.7212286167  MEMB      310             0.0000000000
     36385       310  POPE      H15Y          -41.6948704789       27.3797636800       -2.1333757001  MEMB      310             0.0000000000
     36386       310  POPE      C316          -40.9611947722       28.1619162979       -0.1990569923  MEMB      310             0.0000000000
     36387       310  POPE      H16X          -40.4381912829       29.0046397852       -0.6996610525  MEMB      310             0.0000000000
     36388       310  POPE      H16Y          -40.2934533498       27.7499539066        0.5875375180  MEMB      310             0.0000000000
     36389       310  POPE      H16Z          -41.9214048986       28.6166580567        0.1257930921  MEMB      310             0.0000000000
     36390       311  POPE      N             -43.5228041359       25.1812502023      -16.1980279622  MEMB      311             0.0000000000
     36391       311  POPE      HN1           -44.3715528612       24.6415952286      -15.9334562503  MEMB      311             0.0000000000
     36392       311  POPE      HN2           -42.6808426775       24.7976112372      -15.7231361217  MEMB      311             0.0000000000
     36393       311  POPE      HN3           -43.8969913768       26.1271591112      -15.9816018980  MEMB      311             0.0000000000
     36394       311  POPE      C12           -43.2988186918       25.1982226493      -17.6934356130  MEMB      311             0.0000000000
     36395       311  POPE      H12A          -42.6280116580       24.3360393841      -17.8958680007  MEMB      311             0.0000000000
     36396       311  POPE      H12B          -42.5564185793       26.0141418543      -17.8254926377  MEMB      311             0.0000000000
     36397       311  POPE      C11           -44.5207991022       25.4508852722      -18.5212437141  MEMB      311             0.0000000000
     36398       311  POPE      H11A          -44.2750235158       26.0498688299      -19.4240915269  MEMB      311             0.0000000000
     36399       311  POPE      H11B          -45.2914480318       26.0298978444      -17.9688255624  MEMB      311             0.0000000000
     36400       311  POPE      P             -44.8317194002       23.2530635579      -19.9574248199  MEMB      311             0.0000000000
     36401       311  POPE      O13           -43.4437241341       22.8292117890      -20.0018454981  MEMB      311             0.0000000000
     36402       311  POPE      O14           -45.2282361766       24.0517611134      -21.1451823372  MEMB      311             0.0000000000
     36403       311  POPE      O11           -45.8381205592       22.0737553777      -19.7958483315  MEMB      311             0.0000000000
     36404       311  POPE      O12           -45.1581162023       24.1384060415      -18.6869917334  MEMB      311             0.0000000000
     36405       311  POPE      C1            -46.0178666994       21.3273549686      -18.6143751870  MEMB      311             0.0000000000
     36406       311  POPE      HA            -45.1752540406       21.2395323782      -17.8956178240  MEMB      311             0.0000000000
     36407       311  POPE      HB            -46.1341601502       20.2609000562      -18.9032888024  MEMB      311             0.0000000000
     36408       311  POPE      C2            -47.2968074413       21.8239556482      -17.7290938616  MEMB      311             0.0000000000
     36409       311  POPE      HS            -48.0825087420       22.0829797444      -18.4706470648  MEMB      311             0.0000000000
     36410       311  POPE      O21           -46.8467634352       22.9588355923      -17.0506847742  MEMB      311             0.0000000000
     36411       311  POPE      C21           -47.8229110928       23.5742938902      -16.3877595147  MEMB      311             0.0000000000
     36412       311  POPE      O22           -48.9999819017       23.5626682084      -16.6230563950  MEMB      311             0.0000000000
     36413       311  POPE      C22           -47.1523041773       24.3763802569      -15.3298718200  MEMB      311             0.0000000000
     36414       311  POPE      H2R           -47.0263360801       25.3857583893      -15.7766480933  MEMB      311             0.0000000000
     36415       311  POPE      H2S           -46.1247685027       23.9576380911      -15.2737791283  MEMB      311             0.0000000000
     36416       311  POPE      C3            -47.6959517554       20.7315586382      -16.7626834112  MEMB      311             0.0000000000
     36417       311  POPE      HX            -48.0813198214       19.8283013120      -17.2822398219  MEMB      311             0.0000000000
     36418       311  POPE      HY            -48.5672195120       21.0474778750      -16.1499772769  MEMB      311             0.0000000000
     36419       311  POPE      O31           -46.6423185509       20.2338922597      -15.9263986420  MEMB      311             0.0000000000
     36420       311  POPE      C31           -46.3808549313       20.6662083945      -14.7897218960  MEMB      311             0.0000000000
     36421       311  POPE      O32           -47.0132738528       21.4841137008      -14.1398445484  MEMB      311             0.0000000000
     36422       311  POPE      C32           -45.1040422393       19.8732242289      -14.2365581619  MEMB      311             0.0000000000
     36423       311  POPE      H2X           -45.1810242887       18.8491262569      -14.6603712374  MEMB      311             0.0000000000
     36424       311  POPE      H2Y           -45.2298001310       19.7188206859      -13.1435504861  MEMB      311             0.0000000000
     36425       311  POPE      C23           -47.9048664780       24.3023925247      -13.9842050201  MEMB      311             0.0000000000
     36426       311  POPE      H3R           -48.5072783521       23.3987698002      -13.7499259280  MEMB      311             0.0000000000
     36427       311  POPE      H3S           -48.7202732156       25.0523897158      -14.0674955663  MEMB      311             0.0000000000
     36428       311  POPE      C24           -47.0696261326       24.7804135922      -12.7426880180  MEMB      311             0.0000000000
     36429       311  POPE      H4R           -46.5528242524       25.6597314348      -13.1831842757  MEMB      311             0.0000000000
     36430       311  POPE      H4S           -46.3375364802       24.0061016555      -12.4283526349  MEMB      311             0.0000000000
     36431       311  POPE      C25           -47.9523857162       25.1611093776      -11.5298517914  MEMB      311             0.0000000000
     36432       311  POPE      H5R           -48.3591880438       26.1939291850      -11.5758529220  MEMB      311             0.0000000000
     36433       311  POPE      H5S           -47.0849387492       25.3381323229      -10.8586446516  MEMB      311             0.0000000000
     36434       311  POPE      C26           -49.0922709712       24.2230746348      -11.0614532345  MEMB      311             0.0000000000
     36435       311  POPE      H6R           -49.8253818306       23.8818030287      -11.8232949944  MEMB      311             0.0000000000
     36436       311  POPE      H6S           -49.7146165391       24.7436855301      -10.3025257266  MEMB      311             0.0000000000
     36437       311  POPE      C27           -48.6714772709       22.9850941758      -10.2603424952  MEMB      311             0.0000000000
     36438       311  POPE      H7R           -47.8678977452       22.4586002958      -10.8183611909  MEMB      311             0.0000000000
     36439       311  POPE      H7S           -49.5642138220       22.3341688331      -10.1435592781  MEMB      311             0.0000000000
     36440       311  POPE      C28           -48.1993225935       23.2492127415       -8.7809688940  MEMB      311             0.0000000000
     36441       311  POPE      H8R           -48.9650804052       23.8509294810       -8.2462981287  MEMB      311             0.0000000000
     36442       311  POPE      H8S           -47.2428995528       23.8144826964       -8.7742051284  MEMB      311             0.0000000000
     36443       311  POPE      C29           -48.0727159761       21.9100337302       -8.1421884661  MEMB      311             0.0000000000
     36444       311  POPE      H91           -48.9345613545       21.3465004837       -7.7553402132  MEMB      311             0.0000000000
     36445       311  POPE      C210          -46.9870310394       21.1631137250       -8.2035908725  MEMB      311             0.0000000000
     36446       311  POPE      H101          -47.0022645681       20.1371623230       -7.8071165921  MEMB      311             0.0000000000
     36447       311  POPE      C211          -45.6766881904       21.4681892558       -8.9326551353  MEMB      311             0.0000000000
     36448       311  POPE      H11R          -45.7671196314       22.3921624694       -9.5429149113  MEMB      311             0.0000000000
     36449       311  POPE      H11S          -45.4115927845       20.6232335810       -9.6035465354  MEMB      311             0.0000000000
     36450       311  POPE      C212          -44.4031608940       21.6246686928       -8.0332796206  MEMB      311             0.0000000000
     36451       311  POPE      H12R          -43.6237134014       22.0253401021       -8.7161010890  MEMB      311             0.0000000000
     36452       311  POPE      H12S          -44.0815690328       20.6708561730       -7.5630234671  MEMB      311             0.0000000000
     36453       311  POPE      C213          -44.4911468255       22.6640270104       -6.9222817580  MEMB      311             0.0000000000
     36454       311  POPE      H13R          -45.3557515183       22.4313496407       -6.2645274096  MEMB      311             0.0000000000
     36455       311  POPE      H13S          -44.8320748916       23.5993408854       -7.4155130027  MEMB      311             0.0000000000
     36456       311  POPE      C214          -43.1089806562       22.8785381900       -6.1935955466  MEMB      311             0.0000000000
     36457       311  POPE      H14R          -42.3888122032       23.2013518494       -6.9755605676  MEMB      311             0.0000000000
     36458       311  POPE      H14S          -42.6739902002       21.9842496887       -5.6982641380  MEMB      311             0.0000000000
     36459       311  POPE      C215          -43.2007879567       23.8231888927       -5.0186575386  MEMB      311             0.0000000000
     36460       311  POPE      H15R          -43.3691835047       24.8703688272       -5.3493811424  MEMB      311             0.0000000000
     36461       311  POPE      H15S          -42.1743282779       23.9017482992       -4.6008898169  MEMB      311             0.0000000000
     36462       311  POPE      C216          -44.2841489734       23.5829105029       -3.9490187264  MEMB      311             0.0000000000
     36463       311  POPE      H16R          -44.0697832633       22.5312951736       -3.6618369860  MEMB      311             0.0000000000
     36464       311  POPE      H16S          -45.2440841322       23.6442188309       -4.5049747426  MEMB      311             0.0000000000
     36465       311  POPE      C217          -44.0774712804       24.4731936910       -2.6975894971  MEMB      311             0.0000000000
     36466       311  POPE      H17R          -44.9497521227       24.3084877607       -2.0295187267  MEMB      311             0.0000000000
     36467       311  POPE      H17S          -44.0304764365       25.5316089330       -3.0320592124  MEMB      311             0.0000000000
     36468       311  POPE      C218          -42.9459614833       24.0075475330       -1.7914062517  MEMB      311             0.0000000000
     36469       311  POPE      H18R          -43.2395303876       23.0622540518       -1.2868676487  MEMB      311             0.0000000000
     36470       311  POPE      H18S          -42.8363488314       24.7681826613       -0.9890722183  MEMB      311             0.0000000000
     36471       311  POPE      H18T          -42.0336045726       23.8480331567       -2.4049864018  MEMB      311             0.0000000000
     36472       311  POPE      C33           -43.7368705698       20.3694641578      -14.7333810967  MEMB      311             0.0000000000
     36473       311  POPE      H3X           -43.6923297911       20.2678426836      -15.8388268600  MEMB      311             0.0000000000
     36474       311  POPE      H3Y           -42.9396016977       19.7926612495      -14.2176466304  MEMB      311             0.0000000000
     36475       311  POPE      C34           -43.5042574288       21.8425765538      -14.4903166905  MEMB      311             0.0000000000
     36476       311  POPE      H4X           -44.3508845904       22.4257185428      -14.9116110291  MEMB      311             0.0000000000
     36477       311  POPE      H4Y           -42.5800078053       22.0513129023      -15.0704138774  MEMB      311             0.0000000000
     36478       311  POPE      C35           -43.3474413483       22.2187931553      -12.9356182119  MEMB      311             0.0000000000
     36479       311  POPE      H5X           -42.7132414532       21.4364168727      -12.4665778383  MEMB      311             0.0000000000
     36480       311  POPE      H5Y           -44.4162742805       22.0759117261      -12.6682201390  MEMB      311             0.0000000000
     36481       311  POPE      C36           -42.8046042811       23.6427206342      -12.6595408866  MEMB      311             0.0000000000
     36482       311  POPE      H6X           -43.1208565079       24.3011782882      -13.4966423535  MEMB      311             0.0000000000
     36483       311  POPE      H6Y           -41.6944254599       23.6438784421      -12.7022333840  MEMB      311             0.0000000000
     36484       311  POPE      C37           -43.2108525637       24.0719500044      -11.2724651667  MEMB      311             0.0000000000
     36485       311  POPE      H7X           -43.1621612149       23.2816816024      -10.4930896551  MEMB      311             0.0000000000
     36486       311  POPE      H7Y           -44.2795669918       24.3738010367      -11.3049636372  MEMB      311             0.0000000000
     36487       311  POPE      C38           -42.4692423052       25.3335053680      -10.8387444081  MEMB      311             0.0000000000
     36488       311  POPE      H8X           -42.6029888904       26.1023056586      -11.6295536339  MEMB      311             0.0000000000
     36489       311  POPE      H8Y           -41.4076928831       25.0489801517      -10.6760209190  MEMB      311             0.0000000000
     36490       311  POPE      C39           -43.0313705917       25.8884028970       -9.4744393504  MEMB      311             0.0000000000
     36491       311  POPE      H9X           -42.3066422086       26.3602126292       -8.7769547024  MEMB      311             0.0000000000
     36492       311  POPE      H9Y           -43.4815734021       25.0647208591       -8.8801442730  MEMB      311             0.0000000000
     36493       311  POPE      C310          -44.1938068872       26.8766858848       -9.6994980046  MEMB      311             0.0000000000
     36494       311  POPE      H10X          -45.0692824582       26.3283794519      -10.1084284205  MEMB      311             0.0000000000
     36495       311  POPE      H10Y          -43.9225603725       27.6831125403      -10.4139368419  MEMB      311             0.0000000000
     36496       311  POPE      C311          -44.8209906889       27.4940500906       -8.5192243933  MEMB      311             0.0000000000
     36497       311  POPE      H11X          -45.6976299066       28.1572945273       -8.6802571672  MEMB      311             0.0000000000
     36498       311  POPE      H11Y          -44.1126778725       28.1189876854       -7.9343603583  MEMB      311             0.0000000000
     36499       311  POPE      C312          -45.4347974085       26.5183756912       -7.5530966566  MEMB      311             0.0000000000
     36500       311  POPE      H12X          -44.6304866019       25.9002159990       -7.1000147332  MEMB      311             0.0000000000
     36501       311  POPE      H12Y          -46.2376551710       25.9499963091       -8.0695125283  MEMB      311             0.0000000000
     36502       311  POPE      C313          -46.0844188129       27.3912621915       -6.4185568728  MEMB      311             0.0000000000
     36503       311  POPE      H13X          -46.9768831234       27.8965689601       -6.8457496545  MEMB      311             0.0000000000
     36504       311  POPE      H13Y          -45.4476580762       28.2546033951       -6.1295947524  MEMB      311             0.0000000000
     36505       311  POPE      C314          -46.3020517364       26.6352069690       -5.0853588554  MEMB      311             0.0000000000
     36506       311  POPE      H14X          -45.5014181254       25.9783757955       -4.6830161140  MEMB      311             0.0000000000
     36507       311  POPE      H14Y          -47.1317030585       25.9239547294       -5.2856586140  MEMB      311             0.0000000000
     36508       311  POPE      C315          -46.9187814935       27.4680267067       -3.9296670960  MEMB      311             0.0000000000
     36509       311  POPE      H15X          -46.1437141721       28.2143395661       -3.6528855318  MEMB      311             0.0000000000
     36510       311  POPE      H15Y          -47.2335747763       26.8152881604       -3.0875517120  MEMB      311             0.0000000000
     36511       311  POPE      C316          -48.2206088787       28.1909895386       -4.4265350472  MEMB      311             0.0000000000
     36512       311  POPE      H16X          -48.0267402508       29.2097443036       -4.8251256538  MEMB      311             0.0000000000
     36513       311  POPE      H16Y          -48.8746093539       28.4175831437       -3.5574777900  MEMB      311             0.0000000000
     36514       311  POPE      H16Z          -48.7167049708       27.5680712115       -5.2012497336  MEMB      311             0.0000000000
     36515       312  POPC      N              -9.9354669495       54.3838599094      -20.3723361274  MEMB      312             0.0000000000
     36516       312  POPC      C12            -9.2989202946       52.9899118337      -20.2326041065  MEMB      312             0.0000000000
     36517       312  POPC      H12A           -9.2758174891       52.5359397676      -21.2122853831  MEMB      312             0.0000000000
     36518       312  POPC      H12B           -9.9048124713       52.3652816933      -19.5929699946  MEMB      312             0.0000000000
     36519       312  POPC      C13           -10.1527455313       54.9263821833      -19.0084574181  MEMB      312             0.0000000000
     36520       312  POPC      H13A          -10.5196342541       55.9385259911      -19.0942331140  MEMB      312             0.0000000000
     36521       312  POPC      H13B          -10.9060239263       54.3445808322      -18.4980860928  MEMB      312             0.0000000000
     36522       312  POPC      H13C           -9.2407276412       54.9008382063      -18.4305552419  MEMB      312             0.0000000000
     36523       312  POPC      C14            -8.9282967744       55.3183319848      -21.1385026349  MEMB      312             0.0000000000
     36524       312  POPC      H14A           -8.9052829011       54.8669168898      -22.1193668713  MEMB      312             0.0000000000
     36525       312  POPC      H14B           -9.3966532709       56.2786404310      -21.2961416520  MEMB      312             0.0000000000
     36526       312  POPC      H14C           -8.0052275306       55.4470661490      -20.5928190461  MEMB      312             0.0000000000
     36527       312  POPC      C15           -11.1830708097       54.3249663870      -21.2653316009  MEMB      312             0.0000000000
     36528       312  POPC      H15A          -11.6252856290       55.3061234251      -21.3557564651  MEMB      312             0.0000000000
     36529       312  POPC      H15B          -11.8727073066       53.5911193629      -20.8751134635  MEMB      312             0.0000000000
     36530       312  POPC      H15C          -10.8773505732       53.9161900968      -22.2170862770  MEMB      312             0.0000000000
     36531       312  POPC      C11            -7.8869758433       52.9299128689      -19.6117744303  MEMB      312             0.0000000000
     36532       312  POPC      H11A           -7.2035282051       53.6038745854      -20.1712347620  MEMB      312             0.0000000000
     36533       312  POPC      H11B           -7.4611130441       51.9136763216      -19.7539893116  MEMB      312             0.0000000000
     36534       312  POPC      P              -6.3719054895       53.3239117940      -17.4442511882  MEMB      312             0.0000000000
     36535       312  POPC      O13            -5.2889964389       52.8340894879      -18.3946109819  MEMB      312             0.0000000000
     36536       312  POPC      O14            -6.4796913355       52.6776664130      -16.1158305624  MEMB      312             0.0000000000
     36537       312  POPC      O12            -7.8428806666       53.2971088134      -18.1860428996  MEMB      312             0.0000000000
     36538       312  POPC      O11            -6.1269449333       54.8947723580      -17.2302580464  MEMB      312             0.0000000000
     36539       312  POPC      C1             -7.1761423275       55.7035452562      -16.6997414332  MEMB      312             0.0000000000
     36540       312  POPC      HA             -7.7636606537       55.1293190080      -15.9518060717  MEMB      312             0.0000000000
     36541       312  POPC      HB             -7.8608271989       56.0451615392      -17.5052388542  MEMB      312             0.0000000000
     36542       312  POPC      C2             -6.5153468766       56.9472651753      -16.0170628712  MEMB      312             0.0000000000
     36543       312  POPC      HS             -6.0447122033       57.4845050144      -16.8680607754  MEMB      312             0.0000000000
     36544       312  POPC      O21            -5.5591538572       56.5028887432      -15.0522786147  MEMB      312             0.0000000000
     36545       312  POPC      C21            -4.6641099700       57.4195721403      -14.6335283995  MEMB      312             0.0000000000
     36546       312  POPC      O22            -4.5881178070       58.5014663680      -15.1218291580  MEMB      312             0.0000000000
     36547       312  POPC      C22            -3.7599096831       56.7024653244      -13.6413865036  MEMB      312             0.0000000000
     36548       312  POPC      H2R            -2.7224559751       56.9086261419      -13.9812518578  MEMB      312             0.0000000000
     36549       312  POPC      H2S            -3.7803028734       55.5916576232      -13.6448176823  MEMB      312             0.0000000000
     36550       312  POPC      C3             -7.6528055955       57.8236451255      -15.3341053730  MEMB      312             0.0000000000
     36551       312  POPC      HX             -8.2977196582       58.2054982654      -16.1542242926  MEMB      312             0.0000000000
     36552       312  POPC      HY             -7.0472594406       58.6828576956      -14.9743994537  MEMB      312             0.0000000000
     36553       312  POPC      O31            -8.3814506312       57.1024580244      -14.3059523575  MEMB      312             0.0000000000
     36554       312  POPC      C31            -9.3769456082       57.7647363775      -13.7039056709  MEMB      312             0.0000000000
     36555       312  POPC      O32            -9.6901312024       58.8979451012      -13.9655495408  MEMB      312             0.0000000000
     36556       312  POPC      C32           -10.0989997494       56.9078378625      -12.7755832748  MEMB      312             0.0000000000
     36557       312  POPC      H2X            -9.5726385781       55.9500845510      -12.5756496816  MEMB      312             0.0000000000
     36558       312  POPC      H2Y           -11.0428528150       56.5983249827      -13.2732422075  MEMB      312             0.0000000000
     36559       312  POPC      C23            -3.9491540356       57.3454568651      -12.2800222832  MEMB      312             0.0000000000
     36560       312  POPC      H3R            -3.9029733766       58.4355394163      -12.4895655586  MEMB      312             0.0000000000
     36561       312  POPC      H3S            -3.1482064326       57.0865596036      -11.5549180107  MEMB      312             0.0000000000
     36562       312  POPC      C24            -5.2957608871       56.8290252817      -11.7577150163  MEMB      312             0.0000000000
     36563       312  POPC      H4R            -5.4221251044       55.7252452870      -11.7625105967  MEMB      312             0.0000000000
     36564       312  POPC      H4S            -6.0731427471       57.2091749207      -12.4544823811  MEMB      312             0.0000000000
     36565       312  POPC      C25            -5.7376053847       57.3129273771      -10.3741111805  MEMB      312             0.0000000000
     36566       312  POPC      H5R            -5.2774256166       56.8174409907       -9.4926077392  MEMB      312             0.0000000000
     36567       312  POPC      H5S            -6.8240836383       57.0808112896      -10.3769360023  MEMB      312             0.0000000000
     36568       312  POPC      C26            -5.7122541337       58.8698657814      -10.1953015252  MEMB      312             0.0000000000
     36569       312  POPC      H6R            -5.8210240923       59.4745579569      -11.1209563984  MEMB      312             0.0000000000
     36570       312  POPC      H6S            -4.7811659146       59.1790164739       -9.6739359718  MEMB      312             0.0000000000
     36571       312  POPC      C27            -6.7943119520       59.3536933220       -9.2560495308  MEMB      312             0.0000000000
     36572       312  POPC      H7R            -7.7628353038       58.9213634904       -9.5867684984  MEMB      312             0.0000000000
     36573       312  POPC      H7S            -6.9570222837       60.4480212742       -9.3575020814  MEMB      312             0.0000000000
     36574       312  POPC      C28            -6.6187184306       58.9215496552       -7.8257655484  MEMB      312             0.0000000000
     36575       312  POPC      H8R            -6.2913405112       57.8605754601       -7.8642155593  MEMB      312             0.0000000000
     36576       312  POPC      H8S            -7.6627211218       58.8733843728       -7.4488585014  MEMB      312             0.0000000000
     36577       312  POPC      C29            -5.7530220562       59.7700481544       -6.8446640731  MEMB      312             0.0000000000
     36578       312  POPC      H91            -4.9419844428       60.2757100170       -7.3892037258  MEMB      312             0.0000000000
     36579       312  POPC      C210           -5.8980274802       59.9455391877       -5.5569077710  MEMB      312             0.0000000000
     36580       312  POPC      H101           -5.1657108470       60.6563217251       -5.1464191632  MEMB      312             0.0000000000
     36581       312  POPC      C211           -6.9672394375       59.3878133972       -4.6724458419  MEMB      312             0.0000000000
     36582       312  POPC      H11R           -7.8758042406       59.0706124574       -5.2276176033  MEMB      312             0.0000000000
     36583       312  POPC      H11S           -7.3176964781       60.1680213199       -3.9633789494  MEMB      312             0.0000000000
     36584       312  POPC      C212           -6.4450062001       58.1169320889       -3.9277529332  MEMB      312             0.0000000000
     36585       312  POPC      H12R           -5.5287113827       58.3833032970       -3.3587442292  MEMB      312             0.0000000000
     36586       312  POPC      H12S           -6.2443978241       57.3095612393       -4.6641157104  MEMB      312             0.0000000000
     36587       312  POPC      C213           -7.5402604237       57.6160292009       -2.9327936084  MEMB      312             0.0000000000
     36588       312  POPC      H13R           -7.1870640636       56.7305548794       -2.3622613158  MEMB      312             0.0000000000
     36589       312  POPC      H13S           -8.4367823223       57.3202405804       -3.5185229715  MEMB      312             0.0000000000
     36590       312  POPC      C214           -8.1799179691       58.6345762317       -1.9503943428  MEMB      312             0.0000000000
     36591       312  POPC      H14R           -8.9673303390       57.9895727718       -1.5051151576  MEMB      312             0.0000000000
     36592       312  POPC      H14S           -8.7967875313       59.3300207964       -2.5587929006  MEMB      312             0.0000000000
     36593       312  POPC      C215           -7.1807228879       59.2791672641       -1.0282373832  MEMB      312             0.0000000000
     36594       312  POPC      H15R           -7.7388961811       60.0186587043       -0.4151178895  MEMB      312             0.0000000000
     36595       312  POPC      H15S           -6.4743181596       59.9118278286       -1.6070775379  MEMB      312             0.0000000000
     36596       312  POPC      C216           -6.3831249232       58.3432044187       -0.1944329597  MEMB      312             0.0000000000
     36597       312  POPC      H16R           -5.6654960229       58.9001958929        0.4451669286  MEMB      312             0.0000000000
     36598       312  POPC      H16S           -5.7843311456       57.6986043257       -0.8728566157  MEMB      312             0.0000000000
     36599       312  POPC      C217           -7.0861649581       57.3751172521        0.7750120822  MEMB      312             0.0000000000
     36600       312  POPC      H17R           -7.7197461684       56.6280069080        0.2508724886  MEMB      312             0.0000000000
     36601       312  POPC      H17S           -7.7773484686       58.0236751981        1.3546321108  MEMB      312             0.0000000000
     36602       312  POPC      C218           -6.1640119657       56.6243700124        1.6875051624  MEMB      312             0.0000000000
     36603       312  POPC      H18R           -5.7156023328       57.3129332386        2.4352563980  MEMB      312             0.0000000000
     36604       312  POPC      H18S           -5.3535765809       56.1533098039        1.0911692157  MEMB      312             0.0000000000
     36605       312  POPC      H18T           -6.6943672867       55.8345852728        2.2613382147  MEMB      312             0.0000000000
     36606       312  POPC      C33           -10.4159542060       57.7089912797      -11.4783412198  MEMB      312             0.0000000000
     36607       312  POPC      H3X           -10.9130213431       58.6407977549      -11.8232793199  MEMB      312             0.0000000000
     36608       312  POPC      H3Y            -9.4678570978       57.9505395175      -10.9519503967  MEMB      312             0.0000000000
     36609       312  POPC      C34           -11.3697773385       56.8479021912      -10.6149312735  MEMB      312             0.0000000000
     36610       312  POPC      H4X           -12.0466565914       56.3258040042      -11.3245569867  MEMB      312             0.0000000000
     36611       312  POPC      H4Y           -12.0343748059       57.5401765844      -10.0551210535  MEMB      312             0.0000000000
     36612       312  POPC      C35           -10.7461080506       55.8716893634       -9.6081173258  MEMB      312             0.0000000000
     36613       312  POPC      H5X           -10.2085376373       55.2494811976      -10.3552426697  MEMB      312             0.0000000000
     36614       312  POPC      H5Y           -11.5426533713       55.2600362013       -9.1330206344  MEMB      312             0.0000000000
     36615       312  POPC      C36            -9.7118926425       56.4710973869       -8.6077580365  MEMB      312             0.0000000000
     36616       312  POPC      H6X           -10.3180377939       57.2341457483       -8.0742161949  MEMB      312             0.0000000000
     36617       312  POPC      H6Y            -8.9041386704       56.9834718148       -9.1728478781  MEMB      312             0.0000000000
     36618       312  POPC      C37            -9.2371321846       55.5830792625       -7.4628640661  MEMB      312             0.0000000000
     36619       312  POPC      H7X           -10.0282365308       54.8476031535       -7.2029610093  MEMB      312             0.0000000000
     36620       312  POPC      H7Y            -9.1050148464       56.2214626034       -6.5632353230  MEMB      312             0.0000000000
     36621       312  POPC      C38            -7.9379527489       54.7931482131       -7.6958373697  MEMB      312             0.0000000000
     36622       312  POPC      H8X            -7.0805996556       55.4990080910       -7.6637655472  MEMB      312             0.0000000000
     36623       312  POPC      H8Y            -7.8110370912       54.2058519193       -8.6303406249  MEMB      312             0.0000000000
     36624       312  POPC      C39            -7.7030716913       53.7765380609       -6.4996187525  MEMB      312             0.0000000000
     36625       312  POPC      H9X            -6.6778489345       53.3505033876       -6.5412569940  MEMB      312             0.0000000000
     36626       312  POPC      H9Y            -8.3172770811       52.9046373264       -6.8108445536  MEMB      312             0.0000000000
     36627       312  POPC      C310           -7.8920031084       54.3556819842       -5.0822900228  MEMB      312             0.0000000000
     36628       312  POPC      H10X           -8.9202615791       54.7703519544       -5.0111957416  MEMB      312             0.0000000000
     36629       312  POPC      H10Y           -7.2692426581       55.2730660516       -5.0123106289  MEMB      312             0.0000000000
     36630       312  POPC      C311           -7.7846992658       53.3294766158       -3.9169575621  MEMB      312             0.0000000000
     36631       312  POPC      H11X           -6.6983119156       53.1950008108       -3.7272217832  MEMB      312             0.0000000000
     36632       312  POPC      H11Y           -8.2889680295       52.4788965975       -4.4234631641  MEMB      312             0.0000000000
     36633       312  POPC      C312           -8.4254782221       53.7350626461       -2.5764263343  MEMB      312             0.0000000000
     36634       312  POPC      H12X           -9.4889846807       54.0472864453       -2.6525295903  MEMB      312             0.0000000000
     36635       312  POPC      H12Y           -7.9787331758       54.7140703246       -2.3002321185  MEMB      312             0.0000000000
     36636       312  POPC      C313           -8.3113665186       52.6870076392       -1.4292426990  MEMB      312             0.0000000000
     36637       312  POPC      H13X           -7.2312879306       52.4543236706       -1.3125840687  MEMB      312             0.0000000000
     36638       312  POPC      H13Y           -8.7795362046       51.6984915770       -1.6241137478  MEMB      312             0.0000000000
     36639       312  POPC      C314           -8.8644972623       53.3033635396       -0.0642937471  MEMB      312             0.0000000000
     36640       312  POPC      H14X           -8.1568855447       54.0600737768        0.3369479604  MEMB      312             0.0000000000
     36641       312  POPC      H14Y           -8.9754421005       52.4963671526        0.6911989496  MEMB      312             0.0000000000
     36642       312  POPC      C315          -10.2169364038       54.0593496616       -0.0542979698  MEMB      312             0.0000000000
     36643       312  POPC      H15X          -10.9609823557       53.2911623928       -0.3553038050  MEMB      312             0.0000000000
     36644       312  POPC      H15Y          -10.2604647635       54.9134884865       -0.7634327911  MEMB      312             0.0000000000
     36645       312  POPC      C316          -10.6838723090       54.4819761125        1.3411540443  MEMB      312             0.0000000000
     36646       312  POPC      H16X          -11.7026701336       54.9036041531        1.2047652334  MEMB      312             0.0000000000
     36647       312  POPC      H16Y          -10.0526391555       55.3185524304        1.7099439046  MEMB      312             0.0000000000
     36648       312  POPC      H16Z          -10.6054354348       53.6314941367        2.0516802665  MEMB      312             0.0000000000
     36649       313  POPE      N              14.7507614803       58.1853567432      -19.0475957793  MEMB      313             0.0000000000
     36650       313  POPE      HN1            15.0304710679       58.7834950833      -18.2441078117  MEMB      313             0.0000000000
     36651       313  POPE      HN2            15.5597677731       58.0408583235      -19.6849568389  MEMB      313             0.0000000000
     36652       313  POPE      HN3            13.9771640025       58.6440939018      -19.5698094407  MEMB      313             0.0000000000
     36653       313  POPE      C12            14.1893797340       56.8475107565      -18.5416044463  MEMB      313             0.0000000000
     36654       313  POPE      H12A           13.2146832100       57.1311121206      -18.0900980745  MEMB      313             0.0000000000
     36655       313  POPE      H12B           14.7965951599       56.5793350151      -17.6507103957  MEMB      313             0.0000000000
     36656       313  POPE      C11            14.0631620897       55.7245206046      -19.6241728437  MEMB      313             0.0000000000
     36657       313  POPE      H11A           15.0232721543       55.6740810760      -20.1809184434  MEMB      313             0.0000000000
     36658       313  POPE      H11B           13.2587035901       56.0781635297      -20.3039552952  MEMB      313             0.0000000000
     36659       313  POPE      P              14.6427130015       53.2161785713      -19.0284848681  MEMB      313             0.0000000000
     36660       313  POPE      O13            15.7431160342       53.3382273595      -20.0354152262  MEMB      313             0.0000000000
     36661       313  POPE      O14            13.8226645629       51.9869797298      -19.1349758137  MEMB      313             0.0000000000
     36662       313  POPE      O11            15.3872592573       53.2121238411      -17.6187374876  MEMB      313             0.0000000000
     36663       313  POPE      O12            13.7533310441       54.4891327932      -18.9690135381  MEMB      313             0.0000000000
     36664       313  POPE      C1             14.7152001951       52.6947473969      -16.4712263161  MEMB      313             0.0000000000
     36665       313  POPE      HA             15.2253180486       51.7409429828      -16.2175373920  MEMB      313             0.0000000000
     36666       313  POPE      HB             13.6396184395       52.5134576762      -16.6823633908  MEMB      313             0.0000000000
     36667       313  POPE      C2             14.8128554049       53.6723555939      -15.2623546324  MEMB      313             0.0000000000
     36668       313  POPE      HS             14.5072054489       53.2119730750      -14.2985355849  MEMB      313             0.0000000000
     36669       313  POPE      O21            13.9093264428       54.7918738254      -15.5752333369  MEMB      313             0.0000000000
     36670       313  POPE      C21            12.5633743633       54.5504311032      -15.4066445680  MEMB      313             0.0000000000
     36671       313  POPE      O22            12.1545955314       53.5338419322      -14.9444879527  MEMB      313             0.0000000000
     36672       313  POPE      C22            11.7945855846       55.7917494404      -15.7992723236  MEMB      313             0.0000000000
     36673       313  POPE      H2R            10.9348809833       55.4640503892      -16.4220421335  MEMB      313             0.0000000000
     36674       313  POPE      H2S            12.4330229666       56.5565160485      -16.2910555779  MEMB      313             0.0000000000
     36675       313  POPE      C3             16.2215401202       54.2036739796      -14.9208218276  MEMB      313             0.0000000000
     36676       313  POPE      HX             16.6544747805       54.7240325597      -15.8017959324  MEMB      313             0.0000000000
     36677       313  POPE      HY             16.9210705905       53.3914172093      -14.6289022659  MEMB      313             0.0000000000
     36678       313  POPE      O31            16.1692974867       55.1111731396      -13.8030631383  MEMB      313             0.0000000000
     36679       313  POPE      C31            16.0140528259       56.4026511571      -14.0914567395  MEMB      313             0.0000000000
     36680       313  POPE      O32            16.1568511924       56.8995703450      -15.2226727192  MEMB      313             0.0000000000
     36681       313  POPE      C32            15.8059479075       57.1891776580      -12.7390998967  MEMB      313             0.0000000000
     36682       313  POPE      H2X            16.3297872789       56.7480813124      -11.8642586232  MEMB      313             0.0000000000
     36683       313  POPE      H2Y            14.7363381797       57.2114207105      -12.4394980799  MEMB      313             0.0000000000
     36684       313  POPE      C23            11.1098114040       56.3257883801      -14.5102771398  MEMB      313             0.0000000000
     36685       313  POPE      H3R            10.5427536377       55.5718647840      -13.9234503400  MEMB      313             0.0000000000
     36686       313  POPE      H3S            10.4474480197       57.1675978250      -14.8051544448  MEMB      313             0.0000000000
     36687       313  POPE      C24            12.0688132109       56.8070549848      -13.4600161505  MEMB      313             0.0000000000
     36688       313  POPE      H4R            12.8197781923       57.4782480548      -13.9289215765  MEMB      313             0.0000000000
     36689       313  POPE      H4S            12.5417971710       55.8901445483      -13.0478484838  MEMB      313             0.0000000000
     36690       313  POPE      C25            11.4488115998       57.7002589146      -12.3956307153  MEMB      313             0.0000000000
     36691       313  POPE      H5R            10.4203059055       57.8561899799      -12.7857361386  MEMB      313             0.0000000000
     36692       313  POPE      H5S            11.8412957139       58.7332209718      -12.5108116475  MEMB      313             0.0000000000
     36693       313  POPE      C26            11.5902388194       57.1776159142      -11.0024245709  MEMB      313             0.0000000000
     36694       313  POPE      H6R            10.9111416897       56.3376367918      -10.7424561365  MEMB      313             0.0000000000
     36695       313  POPE      H6S            11.2041911272       58.0109080229      -10.3771947120  MEMB      313             0.0000000000
     36696       313  POPE      C27            12.9932118101       57.0875360533      -10.3305652868  MEMB      313             0.0000000000
     36697       313  POPE      H7R            13.5068695549       58.0647544094      -10.4551485416  MEMB      313             0.0000000000
     36698       313  POPE      H7S            13.7724819166       56.4322747264      -10.7751906725  MEMB      313             0.0000000000
     36699       313  POPE      C28            12.9987907622       56.5563332167       -8.9018852419  MEMB      313             0.0000000000
     36700       313  POPE      H8R            12.1168975380       56.9790712551       -8.3747441569  MEMB      313             0.0000000000
     36701       313  POPE      H8S            13.7787402005       57.0232022781       -8.2631113359  MEMB      313             0.0000000000
     36702       313  POPE      C29            12.9512223935       55.0731780941       -8.6774350511  MEMB      313             0.0000000000
     36703       313  POPE      H91            12.1056508984       54.6736410547       -9.2565540606  MEMB      313             0.0000000000
     36704       313  POPE      C210           13.8545387046       54.2577805310       -8.0908947778  MEMB      313             0.0000000000
     36705       313  POPE      H101           13.7071066224       53.1685873530       -8.0470553159  MEMB      313             0.0000000000
     36706       313  POPE      C211           15.1811968196       54.7762749629       -7.5054625071  MEMB      313             0.0000000000
     36707       313  POPE      H11R           15.1634087775       55.8768208832       -7.3544557025  MEMB      313             0.0000000000
     36708       313  POPE      H11S           15.9960977088       54.6890564379       -8.2555632086  MEMB      313             0.0000000000
     36709       313  POPE      C212           15.6605652807       54.2680270741       -6.0932846179  MEMB      313             0.0000000000
     36710       313  POPE      H12R           16.5541468862       54.8214562678       -5.7333549351  MEMB      313             0.0000000000
     36711       313  POPE      H12S           15.8386415735       53.2035626010       -6.3569604127  MEMB      313             0.0000000000
     36712       313  POPE      C213           14.5796833192       54.3475289150       -5.0366214597  MEMB      313             0.0000000000
     36713       313  POPE      H13R           13.9504080581       53.4392708516       -5.1523848882  MEMB      313             0.0000000000
     36714       313  POPE      H13S           14.0114710350       55.2995713257       -5.1078319939  MEMB      313             0.0000000000
     36715       313  POPE      C214           15.0202227188       54.2072959663       -3.6007457722  MEMB      313             0.0000000000
     36716       313  POPE      H14R           15.9585763309       53.6247334965       -3.4806019302  MEMB      313             0.0000000000
     36717       313  POPE      H14S           14.3068470515       53.7139433697       -2.9064697584  MEMB      313             0.0000000000
     36718       313  POPE      C215           15.2751719037       55.5762705920       -2.7767902673  MEMB      313             0.0000000000
     36719       313  POPE      H15R           16.1088321939       56.2005200397       -3.1636286970  MEMB      313             0.0000000000
     36720       313  POPE      H15S           15.5146318630       55.1745222411       -1.7690319300  MEMB      313             0.0000000000
     36721       313  POPE      C216           14.0905339940       56.5530563346       -2.5739430847  MEMB      313             0.0000000000
     36722       313  POPE      H16R           13.7548094918       56.8314153345       -3.5957679233  MEMB      313             0.0000000000
     36723       313  POPE      H16S           14.3780739706       57.4444770961       -1.9764382603  MEMB      313             0.0000000000
     36724       313  POPE      C217           12.9174132857       55.9876326036       -1.7359080503  MEMB      313             0.0000000000
     36725       313  POPE      H17R           12.6011107613       55.0251694864       -2.1919100364  MEMB      313             0.0000000000
     36726       313  POPE      H17S           12.0991204279       56.7320564108       -1.8386264466  MEMB      313             0.0000000000
     36727       313  POPE      C218           13.1700715525       55.8009771475       -0.2070531897  MEMB      313             0.0000000000
     36728       313  POPE      H18R           13.5282511332       56.7507116195        0.2446481034  MEMB      313             0.0000000000
     36729       313  POPE      H18S           13.9401284712       55.0275654811        0.0007153569  MEMB      313             0.0000000000
     36730       313  POPE      H18T           12.2460468263       55.3993411686        0.2611222384  MEMB      313             0.0000000000
     36731       313  POPE      C33            16.4393873283       58.5464311926      -12.8632719762  MEMB      313             0.0000000000
     36732       313  POPE      H3X            15.9692600491       59.0300074426      -13.7461394203  MEMB      313             0.0000000000
     36733       313  POPE      H3Y            17.5312011463       58.4409530186      -13.0397329924  MEMB      313             0.0000000000
     36734       313  POPE      C34            16.0286872813       59.5242236644      -11.7038849728  MEMB      313             0.0000000000
     36735       313  POPE      H4X            14.9718924609       59.8318485386      -11.8551216180  MEMB      313             0.0000000000
     36736       313  POPE      H4Y            16.5316004158       60.5142729578      -11.7385624398  MEMB      313             0.0000000000
     36737       313  POPE      C35            16.3836513274       58.9814479121      -10.2603946261  MEMB      313             0.0000000000
     36738       313  POPE      H5X            17.4686466445       58.7437825215      -10.2354736099  MEMB      313             0.0000000000
     36739       313  POPE      H5Y            15.7335947284       58.0840188313      -10.1805922420  MEMB      313             0.0000000000
     36740       313  POPE      C36            16.1636751327       59.9253017765       -9.0262683090  MEMB      313             0.0000000000
     36741       313  POPE      H6X            15.0982815137       60.2297786669       -8.9453290128  MEMB      313             0.0000000000
     36742       313  POPE      H6Y            16.8219747952       60.7991944183       -9.2193340136  MEMB      313             0.0000000000
     36743       313  POPE      C37            16.6434175244       59.3211543126       -7.7317041603  MEMB      313             0.0000000000
     36744       313  POPE      H7X            17.7390868205       59.1387889706       -7.7556364651  MEMB      313             0.0000000000
     36745       313  POPE      H7Y            16.0184489336       58.4291951538       -7.5122856661  MEMB      313             0.0000000000
     36746       313  POPE      C38            16.5404431276       60.3312026163       -6.6164932181  MEMB      313             0.0000000000
     36747       313  POPE      H8X            15.6281839526       60.9506036054       -6.7523102710  MEMB      313             0.0000000000
     36748       313  POPE      H8Y            17.3346932764       61.0925627915       -6.7708265744  MEMB      313             0.0000000000
     36749       313  POPE      C39            16.7371768563       59.7194380845       -5.2463293819  MEMB      313             0.0000000000
     36750       313  POPE      H9X            17.8326349042       59.5657611960       -5.1430038591  MEMB      313             0.0000000000
     36751       313  POPE      H9Y            16.1962680569       58.7525833381       -5.1630809372  MEMB      313             0.0000000000
     36752       313  POPE      C310           16.3399105327       60.5886828682       -4.0809394613  MEMB      313             0.0000000000
     36753       313  POPE      H10X           16.3902298844       61.6608679593       -4.3676581096  MEMB      313             0.0000000000
     36754       313  POPE      H10Y           16.9358001987       60.4875393112       -3.1487342784  MEMB      313             0.0000000000
     36755       313  POPE      C311           14.9197079904       60.3780283727       -3.6188705066  MEMB      313             0.0000000000
     36756       313  POPE      H11X           14.8110824448       59.3645560961       -3.1768357574  MEMB      313             0.0000000000
     36757       313  POPE      H11Y           14.2360097747       60.3751351504       -4.4945817218  MEMB      313             0.0000000000
     36758       313  POPE      C312           14.4250093073       61.3910562088       -2.6745171658  MEMB      313             0.0000000000
     36759       313  POPE      H12X           13.6837396341       62.1082790611       -3.0873503803  MEMB      313             0.0000000000
     36760       313  POPE      H12Y           15.2366616141       61.9364268356       -2.1471531552  MEMB      313             0.0000000000
     36761       313  POPE      C313           13.4652151641       60.7481320270       -1.5634706722  MEMB      313             0.0000000000
     36762       313  POPE      H13X           12.9410082511       59.8600416854       -1.9767788253  MEMB      313             0.0000000000
     36763       313  POPE      H13Y           12.6505757065       61.4958769376       -1.4559484084  MEMB      313             0.0000000000
     36764       313  POPE      C314           14.0353513321       60.3230938738       -0.2238814951  MEMB      313             0.0000000000
     36765       313  POPE      H14X           14.6321858619       59.4019659883       -0.3960224147  MEMB      313             0.0000000000
     36766       313  POPE      H14Y           13.2293732351       59.9393130956        0.4375052852  MEMB      313             0.0000000000
     36767       313  POPE      C315           14.9938489461       61.3122139765        0.4200225881  MEMB      313             0.0000000000
     36768       313  POPE      H15X           14.5525171631       62.3313882443        0.4488680365  MEMB      313             0.0000000000
     36769       313  POPE      H15Y           15.8676286147       61.3619783680       -0.2643401800  MEMB      313             0.0000000000
     36770       313  POPE      C316           15.5749044490       60.9480430282        1.8078148865  MEMB      313             0.0000000000
     36771       313  POPE      H16X           15.7249754086       59.8687031816        2.0242061312  MEMB      313             0.0000000000
     36772       313  POPE      H16Y           14.8671556136       61.2502259835        2.6091249094  MEMB      313             0.0000000000
     36773       313  POPE      H16Z           16.5271742574       61.4757361561        2.0292709182  MEMB      313             0.0000000000
     36774       314  POPE      N               0.5774942389      -48.4534131052      -20.5660119581  MEMB      314             0.0000000000
     36775       314  POPE      HN1             1.1611921250      -48.7874567693      -21.3593037000  MEMB      314             0.0000000000
     36776       314  POPE      HN2             0.6796886405      -47.4379666341      -20.3659508623  MEMB      314             0.0000000000
     36777       314  POPE      HN3             0.8348623025      -48.9154085065      -19.6705109960  MEMB      314             0.0000000000
     36778       314  POPE      C12            -0.8065543823      -48.9690905774      -20.8673529914  MEMB      314             0.0000000000
     36779       314  POPE      H12A           -0.7118878549      -49.2322452916      -21.9425780301  MEMB      314             0.0000000000
     36780       314  POPE      H12B           -1.4742189002      -48.0813221467      -20.8876583950  MEMB      314             0.0000000000
     36781       314  POPE      C11            -1.3190229423      -50.1159748915      -19.9557926251  MEMB      314             0.0000000000
     36782       314  POPE      H11A           -0.4621066365      -50.8228528339      -19.9742114069  MEMB      314             0.0000000000
     36783       314  POPE      H11B           -2.1971717516      -50.6351457030      -20.3958350405  MEMB      314             0.0000000000
     36784       314  POPE      P              -3.1657206189      -49.6323167580      -18.1010794857  MEMB      314             0.0000000000
     36785       314  POPE      O13            -4.1386148612      -49.7068817764      -19.2762105421  MEMB      314             0.0000000000
     36786       314  POPE      O14            -3.3241535512      -48.4830063338      -17.1812817228  MEMB      314             0.0000000000
     36787       314  POPE      O11            -3.2603736824      -50.9839308636      -17.3603050837  MEMB      314             0.0000000000
     36788       314  POPE      O12            -1.6060208392      -49.5526978086      -18.6919655946  MEMB      314             0.0000000000
     36789       314  POPE      C1             -2.0971151672      -51.5158994448      -16.8384081058  MEMB      314             0.0000000000
     36790       314  POPE      HA             -1.3906180275      -50.7107291328      -16.5436480581  MEMB      314             0.0000000000
     36791       314  POPE      HB             -1.5773395629      -52.1473841923      -17.5903264602  MEMB      314             0.0000000000
     36792       314  POPE      C2             -2.3808666059      -52.4394165812      -15.6206433142  MEMB      314             0.0000000000
     36793       314  POPE      HS             -3.2218986359      -53.1355324195      -15.8265778205  MEMB      314             0.0000000000
     36794       314  POPE      O21            -2.7618674375      -51.6565257633      -14.4435819859  MEMB      314             0.0000000000
     36795       314  POPE      C21            -3.4705125374      -52.3045390207      -13.4794599453  MEMB      314             0.0000000000
     36796       314  POPE      O22            -3.7753972794      -53.4950993715      -13.6329729663  MEMB      314             0.0000000000
     36797       314  POPE      C22            -3.7538301981      -51.4735071998      -12.2090330761  MEMB      314             0.0000000000
     36798       314  POPE      H2R            -3.0795270416      -50.5915549840      -12.2514217994  MEMB      314             0.0000000000
     36799       314  POPE      H2S            -3.5607606507      -52.0690507432      -11.2912243016  MEMB      314             0.0000000000
     36800       314  POPE      C3             -1.0884941408      -53.2868973132      -15.2297991966  MEMB      314             0.0000000000
     36801       314  POPE      HX             -0.9113434970      -53.9317371217      -16.1169971536  MEMB      314             0.0000000000
     36802       314  POPE      HY             -1.3234561627      -53.9185885749      -14.3465778172  MEMB      314             0.0000000000
     36803       314  POPE      O31             0.1315196366      -52.4532907728      -14.9513710526  MEMB      314             0.0000000000
     36804       314  POPE      C31             0.5039241940      -52.3395107932      -13.7367850377  MEMB      314             0.0000000000
     36805       314  POPE      O32             0.2853297794      -53.1953859931      -12.8281934853  MEMB      314             0.0000000000
     36806       314  POPE      C32             1.2130938043      -50.9993286938      -13.3968944443  MEMB      314             0.0000000000
     36807       314  POPE      H2X             2.2795419512      -51.2081894164      -13.1658391989  MEMB      314             0.0000000000
     36808       314  POPE      H2Y             0.6827212359      -50.6733878521      -12.4766830037  MEMB      314             0.0000000000
     36809       314  POPE      C23            -5.2304118898      -50.9482541354      -12.2280079876  MEMB      314             0.0000000000
     36810       314  POPE      H3R            -5.3602741982      -50.5648638730      -11.1933730204  MEMB      314             0.0000000000
     36811       314  POPE      H3S            -5.9971055102      -51.7492909508      -12.2975954213  MEMB      314             0.0000000000
     36812       314  POPE      C24            -5.4330354677      -49.8938632909      -13.3956050660  MEMB      314             0.0000000000
     36813       314  POPE      H4R            -6.5296184858      -49.7862580320      -13.5378997109  MEMB      314             0.0000000000
     36814       314  POPE      H4S            -4.9856371411      -50.2789569857      -14.3368058561  MEMB      314             0.0000000000
     36815       314  POPE      C25            -4.9321836155      -48.5282722985      -13.0446024342  MEMB      314             0.0000000000
     36816       314  POPE      H5R            -4.9352446360      -47.7992424588      -13.8829505735  MEMB      314             0.0000000000
     36817       314  POPE      H5S            -3.8364006622      -48.5401235551      -12.8617362565  MEMB      314             0.0000000000
     36818       314  POPE      C26            -5.8761798313      -47.6222898340      -12.1219211465  MEMB      314             0.0000000000
     36819       314  POPE      H6R            -6.4563570156      -48.1644336042      -11.3448779667  MEMB      314             0.0000000000
     36820       314  POPE      H6S            -6.6550328646      -47.2301438496      -12.8103475195  MEMB      314             0.0000000000
     36821       314  POPE      C27            -5.1046489477      -46.2879017100      -11.8117662617  MEMB      314             0.0000000000
     36822       314  POPE      H7R            -5.8046447729      -45.4895909437      -11.4846173817  MEMB      314             0.0000000000
     36823       314  POPE      H7S            -4.7460269231      -45.8610027474      -12.7727388330  MEMB      314             0.0000000000
     36824       314  POPE      C28            -3.9237982828      -46.3887028509      -10.7634525897  MEMB      314             0.0000000000
     36825       314  POPE      H8R            -3.4764892008      -45.3863096883      -10.5918606708  MEMB      314             0.0000000000
     36826       314  POPE      H8S            -3.0826635695      -46.9347698049      -11.2415988891  MEMB      314             0.0000000000
     36827       314  POPE      C29            -4.5164965410      -46.8736973631       -9.4546547816  MEMB      314             0.0000000000
     36828       314  POPE      H91            -5.2837527076      -46.1761477835       -9.0875818389  MEMB      314             0.0000000000
     36829       314  POPE      C210           -4.2767470335      -47.9999313683       -8.7878510753  MEMB      314             0.0000000000
     36830       314  POPE      H101           -4.5930403705      -48.0570184343       -7.7358532313  MEMB      314             0.0000000000
     36831       314  POPE      C211           -3.3140822045      -49.0745366671       -9.1670535402  MEMB      314             0.0000000000
     36832       314  POPE      H11R           -2.5459757210      -48.7350388684       -9.8944284863  MEMB      314             0.0000000000
     36833       314  POPE      H11S           -3.8463058420      -49.8959854586       -9.6926772023  MEMB      314             0.0000000000
     36834       314  POPE      C212           -2.5623010430      -49.7179203879       -8.0008465089  MEMB      314             0.0000000000
     36835       314  POPE      H12R           -2.2068720704      -48.9822157034       -7.2480318837  MEMB      314             0.0000000000
     36836       314  POPE      H12S           -1.7833613014      -50.2762755665       -8.5628199567  MEMB      314             0.0000000000
     36837       314  POPE      C213           -3.5381578458      -50.6499792164       -7.1595395649  MEMB      314             0.0000000000
     36838       314  POPE      H13R           -4.1931209475      -51.2385823887       -7.8369551494  MEMB      314             0.0000000000
     36839       314  POPE      H13S           -4.2961380255      -50.0597821680       -6.6014585493  MEMB      314             0.0000000000
     36840       314  POPE      C214           -2.7367218679      -51.6319779727       -6.2721141290  MEMB      314             0.0000000000
     36841       314  POPE      H14R           -2.2899281153      -51.0405725359       -5.4445061561  MEMB      314             0.0000000000
     36842       314  POPE      H14S           -1.8006847100      -51.9042947893       -6.8050299670  MEMB      314             0.0000000000
     36843       314  POPE      C215           -3.6218744739      -52.7312691427       -5.7288607159  MEMB      314             0.0000000000
     36844       314  POPE      H15R           -2.9598833083      -53.5409331425       -5.3539837034  MEMB      314             0.0000000000
     36845       314  POPE      H15S           -4.3337887592      -53.0466036769       -6.5213653549  MEMB      314             0.0000000000
     36846       314  POPE      C216           -4.4736019996      -52.3506504146       -4.4238949950  MEMB      314             0.0000000000
     36847       314  POPE      H16R           -5.0134245724      -53.2928752885       -4.1891088503  MEMB      314             0.0000000000
     36848       314  POPE      H16S           -5.2803047447      -51.5918436086       -4.5120075839  MEMB      314             0.0000000000
     36849       314  POPE      C217           -3.5253858478      -51.9102754498       -3.3260696036  MEMB      314             0.0000000000
     36850       314  POPE      H17R           -3.1660078953      -50.8761034837       -3.5149001600  MEMB      314             0.0000000000
     36851       314  POPE      H17S           -2.6062240732      -52.5267991560       -3.2293169046  MEMB      314             0.0000000000
     36852       314  POPE      C218           -4.0617282292      -51.9911369211       -1.9266325514  MEMB      314             0.0000000000
     36853       314  POPE      H18R           -3.4401464727      -51.6010398199       -1.0924979988  MEMB      314             0.0000000000
     36854       314  POPE      H18S           -4.4609864265      -53.0016954671       -1.6949324627  MEMB      314             0.0000000000
     36855       314  POPE      H18T           -5.0376432294      -51.5157778835       -1.6901065069  MEMB      314             0.0000000000
     36856       314  POPE      C33             1.2875690183      -49.9875650503      -14.5275307180  MEMB      314             0.0000000000
     36857       314  POPE      H3X             0.5916174033      -50.2283008154      -15.3594075518  MEMB      314             0.0000000000
     36858       314  POPE      H3Y             2.2004826955      -50.1210394846      -15.1464768292  MEMB      314             0.0000000000
     36859       314  POPE      C34             1.2396666161      -48.5607279436      -14.1418726969  MEMB      314             0.0000000000
     36860       314  POPE      H4X             0.1866431475      -48.3797440242      -13.8373937481  MEMB      314             0.0000000000
     36861       314  POPE      H4Y             1.5431340134      -47.9330835023      -15.0069111514  MEMB      314             0.0000000000
     36862       314  POPE      C35             2.1805734936      -48.2882475778      -12.9681133450  MEMB      314             0.0000000000
     36863       314  POPE      H5X             3.2359770885      -48.4538050633      -13.2731304084  MEMB      314             0.0000000000
     36864       314  POPE      H5Y             2.0191100396      -48.9212635841      -12.0694801801  MEMB      314             0.0000000000
     36865       314  POPE      C36             2.0868098177      -46.8465644488      -12.4171785147  MEMB      314             0.0000000000
     36866       314  POPE      H6X             2.1217802767      -46.1458463841      -13.2786262829  MEMB      314             0.0000000000
     36867       314  POPE      H6Y             2.9901073752      -46.6554854404      -11.7992272020  MEMB      314             0.0000000000
     36868       314  POPE      C37             0.9166381332      -46.4877907460      -11.4740813042  MEMB      314             0.0000000000
     36869       314  POPE      H7X             0.8920521943      -47.2756236727      -10.6911154576  MEMB      314             0.0000000000
     36870       314  POPE      H7Y            -0.0415003340      -46.5053070113      -12.0362065164  MEMB      314             0.0000000000
     36871       314  POPE      C38             0.9993667547      -45.1137465316      -10.8289433526  MEMB      314             0.0000000000
     36872       314  POPE      H8X             1.1946346464      -44.4129053034      -11.6685940941  MEMB      314             0.0000000000
     36873       314  POPE      H8Y             1.9334224488      -45.1459085901      -10.2282551296  MEMB      314             0.0000000000
     36874       314  POPE      C39            -0.2280126151      -44.5808370295      -10.1006570136  MEMB      314             0.0000000000
     36875       314  POPE      H9X            -0.9257582193      -44.1984952498      -10.8760842377  MEMB      314             0.0000000000
     36876       314  POPE      H9Y             0.0099442734      -43.6735710321       -9.5052034128  MEMB      314             0.0000000000
     36877       314  POPE      C310           -0.9317806721      -45.4560282114       -9.1019377287  MEMB      314             0.0000000000
     36878       314  POPE      H10X           -0.8470167258      -46.4938702536       -9.4892615846  MEMB      314             0.0000000000
     36879       314  POPE      H10Y           -2.0194002848      -45.2358852747       -9.0477020091  MEMB      314             0.0000000000
     36880       314  POPE      C311           -0.3921320861      -45.5365184241       -7.6796422789  MEMB      314             0.0000000000
     36881       314  POPE      H11X           -0.6943846617      -44.6663624357       -7.0585200201  MEMB      314             0.0000000000
     36882       314  POPE      H11Y            0.7129723496      -45.6381850280       -7.6274006451  MEMB      314             0.0000000000
     36883       314  POPE      C312           -0.8375738418      -46.8295224005       -7.0550551773  MEMB      314             0.0000000000
     36884       314  POPE      H12X           -0.3123873619      -47.6311400021       -7.6171134453  MEMB      314             0.0000000000
     36885       314  POPE      H12Y           -1.9408130483      -46.7419870829       -7.1526343637  MEMB      314             0.0000000000
     36886       314  POPE      C313           -0.4500489091      -46.8755538503       -5.5156492160  MEMB      314             0.0000000000
     36887       314  POPE      H13X           -1.0486749286      -46.0410280578       -5.0919337196  MEMB      314             0.0000000000
     36888       314  POPE      H13Y            0.6270416616      -46.6522464306       -5.3596651612  MEMB      314             0.0000000000
     36889       314  POPE      C314           -0.8648088869      -48.1743566535       -4.7524683315  MEMB      314             0.0000000000
     36890       314  POPE      H14X           -0.0562588401      -48.9241636415       -4.8879572928  MEMB      314             0.0000000000
     36891       314  POPE      H14Y           -1.7410429727      -48.5664968354       -5.3117186716  MEMB      314             0.0000000000
     36892       314  POPE      C315           -1.2969036788      -48.1564065432       -3.2613045995  MEMB      314             0.0000000000
     36893       314  POPE      H15X           -1.1714468554      -49.2264513279       -2.9900381317  MEMB      314             0.0000000000
     36894       314  POPE      H15Y           -2.3756773718      -47.8907935915       -3.2570495082  MEMB      314             0.0000000000
     36895       314  POPE      C316           -0.4689415776      -47.3264842795       -2.3160474169  MEMB      314             0.0000000000
     36896       314  POPE      H16X           -0.9365252332      -47.3875189252       -1.3100834697  MEMB      314             0.0000000000
     36897       314  POPE      H16Y           -0.5769806370      -46.2837612393       -2.6839837995  MEMB      314             0.0000000000
     36898       314  POPE      H16Z            0.6157033525      -47.5667750055       -2.3047881137  MEMB      314             0.0000000000
     36899       315  POPE      N             -40.0372810742      -29.1520780082      -21.0860582961  MEMB      315             0.0000000000
     36900       315  POPE      HN1           -39.5622395000      -29.7062664825      -21.8268759076  MEMB      315             0.0000000000
     36901       315  POPE      HN2           -40.4725290245      -28.2549473808      -21.3815509278  MEMB      315             0.0000000000
     36902       315  POPE      HN3           -39.3883921603      -28.9844689891      -20.2907906436  MEMB      315             0.0000000000
     36903       315  POPE      C12           -41.2428446226      -29.8958877267      -20.5464204816  MEMB      315             0.0000000000
     36904       315  POPE      H12A          -40.8335668483      -30.9195070878      -20.4085221167  MEMB      315             0.0000000000
     36905       315  POPE      H12B          -41.9776684016      -29.9102720682      -21.3795760305  MEMB      315             0.0000000000
     36906       315  POPE      C11           -41.9080555993      -29.2908800078      -19.2914679917  MEMB      315             0.0000000000
     36907       315  POPE      H11A          -41.0961452488      -29.3431821164      -18.5349052986  MEMB      315             0.0000000000
     36908       315  POPE      H11B          -42.8054544359      -29.8583667456      -18.9644280079  MEMB      315             0.0000000000
     36909       315  POPE      P             -42.8557656026      -27.2298297209      -18.1979518081  MEMB      315             0.0000000000
     36910       315  POPE      O13           -43.7060476018      -28.1798216651      -17.4478939693  MEMB      315             0.0000000000
     36911       315  POPE      O14           -43.4153418121      -25.9232854369      -18.4699479319  MEMB      315             0.0000000000
     36912       315  POPE      O11           -41.4880488544      -27.1471871439      -17.4211326679  MEMB      315             0.0000000000
     36913       315  POPE      O12           -42.3355026890      -27.9582256899      -19.5391268567  MEMB      315             0.0000000000
     36914       315  POPE      C1            -40.4150581702      -26.5052062063      -18.1532160456  MEMB      315             0.0000000000
     36915       315  POPE      HA            -40.7329022044      -25.5507939784      -18.6248022847  MEMB      315             0.0000000000
     36916       315  POPE      HB            -39.9578563069      -27.1545219101      -18.9301822909  MEMB      315             0.0000000000
     36917       315  POPE      C2            -39.3030895551      -26.1803692406      -17.1565083288  MEMB      315             0.0000000000
     36918       315  POPE      HS            -38.3102606203      -26.2528220277      -17.6498261887  MEMB      315             0.0000000000
     36919       315  POPE      O21           -39.1342665724      -27.0794279968      -16.0678835680  MEMB      315             0.0000000000
     36920       315  POPE      C21           -38.7833427176      -28.2469169007      -16.2577820931  MEMB      315             0.0000000000
     36921       315  POPE      O22           -38.6036218489      -28.6944487985      -17.3431691413  MEMB      315             0.0000000000
     36922       315  POPE      C22           -38.5056648345      -28.9384322051      -14.9181617753  MEMB      315             0.0000000000
     36923       315  POPE      H2R           -38.1155781923      -28.1632833046      -14.2244060289  MEMB      315             0.0000000000
     36924       315  POPE      H2S           -37.7459195717      -29.7275341873      -15.1037052362  MEMB      315             0.0000000000
     36925       315  POPE      C3            -39.5183754781      -24.7897845875      -16.6150680277  MEMB      315             0.0000000000
     36926       315  POPE      HX            -39.6323525676      -24.2050457645      -17.5528370423  MEMB      315             0.0000000000
     36927       315  POPE      HY            -38.6476267264      -24.4654267450      -16.0060442065  MEMB      315             0.0000000000
     36928       315  POPE      O31           -40.7788173540      -24.5337258872      -15.9694783080  MEMB      315             0.0000000000
     36929       315  POPE      C31           -40.7914861229      -24.9474152353      -14.6970725637  MEMB      315             0.0000000000
     36930       315  POPE      O32           -39.8935667632      -25.4072296870      -14.0669952069  MEMB      315             0.0000000000
     36931       315  POPE      C32           -42.2576721218      -25.0418926915      -14.3869085719  MEMB      315             0.0000000000
     36932       315  POPE      H2X           -42.9201937900      -24.7947633003      -15.2438293315  MEMB      315             0.0000000000
     36933       315  POPE      H2Y           -42.4726761769      -24.3495446697      -13.5450365331  MEMB      315             0.0000000000
     36934       315  POPE      C23           -39.9202505753      -29.6011615641      -14.5165490662  MEMB      315             0.0000000000
     36935       315  POPE      H3R           -40.0507219889      -30.5449852033      -15.0879468969  MEMB      315             0.0000000000
     36936       315  POPE      H3S           -40.7438332105      -28.9136109467      -14.8051777711  MEMB      315             0.0000000000
     36937       315  POPE      C24           -40.0180218249      -29.8955537128      -13.0404101892  MEMB      315             0.0000000000
     36938       315  POPE      H4R           -41.0367223406      -30.1983310632      -12.7165335653  MEMB      315             0.0000000000
     36939       315  POPE      H4S           -39.8115655781      -28.9023024367      -12.5874763989  MEMB      315             0.0000000000
     36940       315  POPE      C25           -38.9837063836      -30.8009605954      -12.5407722483  MEMB      315             0.0000000000
     36941       315  POPE      H5R           -37.9799121280      -30.5203122557      -12.9254207487  MEMB      315             0.0000000000
     36942       315  POPE      H5S           -39.1951621945      -31.8547585061      -12.8220516874  MEMB      315             0.0000000000
     36943       315  POPE      C26           -38.9690962376      -30.7623851850      -10.9639834794  MEMB      315             0.0000000000
     36944       315  POPE      H6R           -38.3414171503      -29.9587051130      -10.5230321439  MEMB      315             0.0000000000
     36945       315  POPE      H6S           -38.5112883755      -31.7216471201      -10.6406429383  MEMB      315             0.0000000000
     36946       315  POPE      C27           -40.3277231648      -30.6339329299      -10.1738104412  MEMB      315             0.0000000000
     36947       315  POPE      H7R           -41.0937166580      -31.1473945445      -10.7934326459  MEMB      315             0.0000000000
     36948       315  POPE      H7S           -40.4922135802      -29.5501949193       -9.9927685392  MEMB      315             0.0000000000
     36949       315  POPE      C28           -40.4804108185      -31.3438934350       -8.8113193551  MEMB      315             0.0000000000
     36950       315  POPE      H8R           -40.7333775508      -32.4183129901       -8.9376188279  MEMB      315             0.0000000000
     36951       315  POPE      H8S           -41.4489461436      -30.8824013422       -8.5227272922  MEMB      315             0.0000000000
     36952       315  POPE      C29           -39.4836434497      -31.0754680755       -7.7021663893  MEMB      315             0.0000000000
     36953       315  POPE      H91           -38.4221164131      -31.1979667531       -7.9632303412  MEMB      315             0.0000000000
     36954       315  POPE      C210          -39.7955710376      -30.8496481372       -6.4152391260  MEMB      315             0.0000000000
     36955       315  POPE      H101          -38.9107391500      -30.8737748891       -5.7621770836  MEMB      315             0.0000000000
     36956       315  POPE      C211          -41.1571599547      -30.8475079125       -5.7821207503  MEMB      315             0.0000000000
     36957       315  POPE      H11R          -41.9714301608      -30.6963574827       -6.5226868843  MEMB      315             0.0000000000
     36958       315  POPE      H11S          -41.3894378909      -29.9004660466       -5.2496922317  MEMB      315             0.0000000000
     36959       315  POPE      C212          -41.5636027075      -32.0524711490       -4.8517074219  MEMB      315             0.0000000000
     36960       315  POPE      H12R          -41.0690875344      -31.8921946904       -3.8698285523  MEMB      315             0.0000000000
     36961       315  POPE      H12S          -41.1490778516      -32.9903567727       -5.2793291839  MEMB      315             0.0000000000
     36962       315  POPE      C213          -43.1035625730      -32.1809881348       -4.5697307106  MEMB      315             0.0000000000
     36963       315  POPE      H13R          -43.2933428253      -32.9845460868       -3.8263603866  MEMB      315             0.0000000000
     36964       315  POPE      H13S          -43.4144713462      -32.5243944397       -5.5795472274  MEMB      315             0.0000000000
     36965       315  POPE      C214          -43.8082307674      -30.8764169939       -4.1140283090  MEMB      315             0.0000000000
     36966       315  POPE      H14R          -43.5735390550      -29.9547907697       -4.6883508989  MEMB      315             0.0000000000
     36967       315  POPE      H14S          -43.4257139642      -30.6868925283       -3.0883176018  MEMB      315             0.0000000000
     36968       315  POPE      C215          -45.3484026770      -30.8330386538       -4.0742052454  MEMB      315             0.0000000000
     36969       315  POPE      H15R          -45.6343243457      -31.8263715752       -3.6669467825  MEMB      315             0.0000000000
     36970       315  POPE      H15S          -45.7360920759      -30.7290646744       -5.1101620304  MEMB      315             0.0000000000
     36971       315  POPE      C216          -45.8910340205      -29.7874276099       -3.0680055053  MEMB      315             0.0000000000
     36972       315  POPE      H16R          -46.9781167238      -29.9731284890       -2.9335181955  MEMB      315             0.0000000000
     36973       315  POPE      H16S          -45.6539222568      -28.7461567888       -3.3743621211  MEMB      315             0.0000000000
     36974       315  POPE      C217          -45.3833651155      -30.0076344781       -1.6512995781  MEMB      315             0.0000000000
     36975       315  POPE      H17R          -44.2870416939      -29.8687100900       -1.5368632533  MEMB      315             0.0000000000
     36976       315  POPE      H17S          -45.5896229789      -31.0599269001       -1.3606801937  MEMB      315             0.0000000000
     36977       315  POPE      C218          -45.9781781707      -29.0057749895       -0.7000009514  MEMB      315             0.0000000000
     36978       315  POPE      H18R          -47.0395919261      -28.8362749569       -0.9810551406  MEMB      315             0.0000000000
     36979       315  POPE      H18S          -45.5303234999      -28.0004404109       -0.8518210115  MEMB      315             0.0000000000
     36980       315  POPE      H18T          -45.8317033244      -29.2983976614        0.3617142756  MEMB      315             0.0000000000
     36981       315  POPE      C33           -42.6248884696      -26.4424759985      -13.8730959625  MEMB      315             0.0000000000
     36982       315  POPE      H3X           -42.0018895754      -26.8847432027      -13.0665023018  MEMB      315             0.0000000000
     36983       315  POPE      H3Y           -42.4717884958      -27.0878235735      -14.7643915653  MEMB      315             0.0000000000
     36984       315  POPE      C34           -44.1361476111      -26.5341445482      -13.5156350784  MEMB      315             0.0000000000
     36985       315  POPE      H4X           -44.6811662348      -27.3105319419      -14.0939934670  MEMB      315             0.0000000000
     36986       315  POPE      H4Y           -44.5730765318      -25.5126741692      -13.5121275200  MEMB      315             0.0000000000
     36987       315  POPE      C35           -44.4455749931      -26.9459870157      -12.0042158275  MEMB      315             0.0000000000
     36988       315  POPE      H5X           -45.5424460181      -27.0701801522      -12.1297999620  MEMB      315             0.0000000000
     36989       315  POPE      H5Y           -44.1871508675      -25.9962087449      -11.4889884823  MEMB      315             0.0000000000
     36990       315  POPE      C36           -43.8261634781      -28.3462716015      -11.6931945496  MEMB      315             0.0000000000
     36991       315  POPE      H6X           -42.8710917373      -28.0692456140      -11.1977998960  MEMB      315             0.0000000000
     36992       315  POPE      H6Y           -43.6334330079      -28.9225409248      -12.6232965515  MEMB      315             0.0000000000
     36993       315  POPE      C37           -44.7071800751      -29.2284369755      -10.8309567925  MEMB      315             0.0000000000
     36994       315  POPE      H7X           -44.2599134961      -30.2320777165      -10.6667040003  MEMB      315             0.0000000000
     36995       315  POPE      H7Y           -45.6482605250      -29.3355868776      -11.4116528288  MEMB      315             0.0000000000
     36996       315  POPE      C38           -45.0937500391      -28.8188511061       -9.4209982267  MEMB      315             0.0000000000
     36997       315  POPE      H8X           -45.6717894458      -29.6629459924       -8.9877592319  MEMB      315             0.0000000000
     36998       315  POPE      H8Y           -45.7451489625      -27.9287425357       -9.5540660557  MEMB      315             0.0000000000
     36999       315  POPE      C39           -43.7969765155      -28.2419898930       -8.7994935234  MEMB      315             0.0000000000
     37000       315  POPE      H9X           -43.4329025892      -27.4238528864       -9.4570823892  MEMB      315             0.0000000000
     37001       315  POPE      H9Y           -43.0306395506      -29.0280240938       -8.9703689490  MEMB      315             0.0000000000
     37002       315  POPE      C310          -44.0007029081      -27.7026626829       -7.3862854369  MEMB      315             0.0000000000
     37003       315  POPE      H10X          -44.0645605796      -28.6039929474       -6.7398745895  MEMB      315             0.0000000000
     37004       315  POPE      H10Y          -44.9392062264      -27.1094435074       -7.3459920021  MEMB      315             0.0000000000
     37005       315  POPE      C311          -42.8778516809      -26.7942125449       -6.8484747178  MEMB      315             0.0000000000
     37006       315  POPE      H11X          -42.6709175496      -25.9544937694       -7.5458773655  MEMB      315             0.0000000000
     37007       315  POPE      H11Y          -41.9137466247      -27.3384142352       -6.7553777091  MEMB      315             0.0000000000
     37008       315  POPE      C312          -43.2435879613      -26.0838039840       -5.5557917641  MEMB      315             0.0000000000
     37009       315  POPE      H12X          -44.3071398763      -25.7640225007       -5.5254855314  MEMB      315             0.0000000000
     37010       315  POPE      H12Y          -42.6544867988      -25.1431430415       -5.5064198772  MEMB      315             0.0000000000
     37011       315  POPE      C313          -42.7029210148      -26.9037371417       -4.2599067158  MEMB      315             0.0000000000
     37012       315  POPE      H13X          -41.8810889994      -27.6245140044       -4.4583858129  MEMB      315             0.0000000000
     37013       315  POPE      H13Y          -43.5523161565      -27.3985959135       -3.7422549088  MEMB      315             0.0000000000
     37014       315  POPE      C314          -42.0807901560      -26.0776562999       -3.1100962768  MEMB      315             0.0000000000
     37015       315  POPE      H14X          -41.3217395997      -25.3682189058       -3.5036213373  MEMB      315             0.0000000000
     37016       315  POPE      H14Y          -41.5437767136      -26.7505251485       -2.4078248083  MEMB      315             0.0000000000
     37017       315  POPE      C315          -43.1103037198      -25.3191480845       -2.3483552142  MEMB      315             0.0000000000
     37018       315  POPE      H15X          -43.7834440799      -25.9697337322       -1.7500740631  MEMB      315             0.0000000000
     37019       315  POPE      H15Y          -43.7341308680      -24.5874152487       -2.9048877762  MEMB      315             0.0000000000
     37020       315  POPE      C316          -42.3670572496      -24.3846598743       -1.3743937292  MEMB      315             0.0000000000
     37021       315  POPE      H16X          -41.3293979585      -24.6573971099       -1.0859517303  MEMB      315             0.0000000000
     37022       315  POPE      H16Y          -42.9540899399      -24.1698201491       -0.4559401770  MEMB      315             0.0000000000
     37023       315  POPE      H16Z          -42.2638028594      -23.4045643211       -1.8872994024  MEMB      315             0.0000000000
     37024       316  POPE      N              43.1803710065      -23.6677424118      -16.3095805808  MEMB      316             0.0000000000
     37025       316  POPE      HN1            43.9811750155      -23.0639794934      -16.5848680060  MEMB      316             0.0000000000
     37026       316  POPE      HN2            42.6889139185      -23.2596420382      -15.4888954739  MEMB      316             0.0000000000
     37027       316  POPE      HN3            43.5416602906      -24.6084033578      -16.0522339853  MEMB      316             0.0000000000
     37028       316  POPE      C12            42.3695377140      -23.8331604923      -17.5778322476  MEMB      316             0.0000000000
     37029       316  POPE      H12A           41.7888039191      -22.8948760356      -17.7070283509  MEMB      316             0.0000000000
     37030       316  POPE      H12B           41.6374423825      -24.6365885734      -17.3479175860  MEMB      316             0.0000000000
     37031       316  POPE      C11            43.2238712150      -24.0953178970      -18.7765755225  MEMB      316             0.0000000000
     37032       316  POPE      H11A           42.4554338955      -24.2438123731      -19.5651023419  MEMB      316             0.0000000000
     37033       316  POPE      H11B           43.8542271121      -25.0010946738      -18.6479653454  MEMB      316             0.0000000000
     37034       316  POPE      P              43.6003633063      -21.7419358942      -19.9368383120  MEMB      316             0.0000000000
     37035       316  POPE      O13            42.1356585380      -21.6381919622      -19.8295668203  MEMB      316             0.0000000000
     37036       316  POPE      O14            44.1822702179      -21.8968862687      -21.3009536286  MEMB      316             0.0000000000
     37037       316  POPE      O11            44.1126912655      -20.3569082324      -19.2773832895  MEMB      316             0.0000000000
     37038       316  POPE      O12            44.0247863262      -22.9091104526      -18.9912695984  MEMB      316             0.0000000000
     37039       316  POPE      C1             45.4630436462      -20.0128166545      -19.6171589616  MEMB      316             0.0000000000
     37040       316  POPE      HA             45.4540130173      -18.9169817138      -19.4344422914  MEMB      316             0.0000000000
     37041       316  POPE      HB             45.7027091869      -20.2792085651      -20.6687846827  MEMB      316             0.0000000000
     37042       316  POPE      C2             46.5031123415      -20.5920290792      -18.6242857497  MEMB      316             0.0000000000
     37043       316  POPE      HS             46.3047746583      -21.6811424189      -18.5303963293  MEMB      316             0.0000000000
     37044       316  POPE      O21            46.3698895192      -19.9973321605      -17.3731147725  MEMB      316             0.0000000000
     37045       316  POPE      C21            46.0476611927      -20.7446993049      -16.4073073413  MEMB      316             0.0000000000
     37046       316  POPE      O22            45.7490129066      -21.9422515449      -16.4213785873  MEMB      316             0.0000000000
     37047       316  POPE      C22            45.9349330292      -19.8862821785      -15.2111813166  MEMB      316             0.0000000000
     37048       316  POPE      H2R            45.1801889562      -19.1073042880      -15.4517554114  MEMB      316             0.0000000000
     37049       316  POPE      H2S            46.8662121870      -19.2807846896      -15.1908656699  MEMB      316             0.0000000000
     37050       316  POPE      C3             47.9027612673      -20.5213911306      -19.1167361092  MEMB      316             0.0000000000
     37051       316  POPE      HX             48.1946473683      -19.4994762660      -19.4404858836  MEMB      316             0.0000000000
     37052       316  POPE      HY             47.9643762859      -21.0229680163      -20.1061527562  MEMB      316             0.0000000000
     37053       316  POPE      O31            48.8786533085      -21.1622606341      -18.2667177564  MEMB      316             0.0000000000
     37054       316  POPE      C31            49.3473781759      -20.4118265781      -17.3032241964  MEMB      316             0.0000000000
     37055       316  POPE      O32            49.0279655137      -19.2348861707      -17.1910165316  MEMB      316             0.0000000000
     37056       316  POPE      C32            50.4465256890      -21.1296532079      -16.4622777695  MEMB      316             0.0000000000
     37057       316  POPE      H2X            51.4423349280      -20.6661269841      -16.6290945188  MEMB      316             0.0000000000
     37058       316  POPE      H2Y            50.4673269371      -22.2023982294      -16.7505598138  MEMB      316             0.0000000000
     37059       316  POPE      C23            45.4454883570      -20.5533882540      -13.9303124576  MEMB      316             0.0000000000
     37060       316  POPE      H3R            46.0236288547      -21.4914610163      -13.7885585288  MEMB      316             0.0000000000
     37061       316  POPE      H3S            44.3995954367      -20.8795765166      -14.1147841099  MEMB      316             0.0000000000
     37062       316  POPE      C24            45.3593240351      -19.6660739040      -12.6443800484  MEMB      316             0.0000000000
     37063       316  POPE      H4R            44.8370021354      -18.7449339479      -12.9805380000  MEMB      316             0.0000000000
     37064       316  POPE      H4S            46.3669540334      -19.2789400535      -12.3814534629  MEMB      316             0.0000000000
     37065       316  POPE      C25            44.6112648878      -20.4032680903      -11.5077747452  MEMB      316             0.0000000000
     37066       316  POPE      H5R            45.2152957871      -21.2811612008      -11.1934958954  MEMB      316             0.0000000000
     37067       316  POPE      H5S            43.7124110541      -20.8615520855      -11.9729180024  MEMB      316             0.0000000000
     37068       316  POPE      C26            44.1698168315      -19.5065243992      -10.3079922664  MEMB      316             0.0000000000
     37069       316  POPE      H6R            43.4391033610      -18.7598583377      -10.6859713106  MEMB      316             0.0000000000
     37070       316  POPE      H6S            45.0981173026      -19.0651458767       -9.8863707186  MEMB      316             0.0000000000
     37071       316  POPE      C27            43.4579181494      -20.4236823314       -9.3216370177  MEMB      316             0.0000000000
     37072       316  POPE      H7R            44.0648711594      -21.3312667870       -9.1161633324  MEMB      316             0.0000000000
     37073       316  POPE      H7S            42.4981179915      -20.7055289530       -9.8050290423  MEMB      316             0.0000000000
     37074       316  POPE      C28            43.1370595779      -19.7650493294       -7.9771790473  MEMB      316             0.0000000000
     37075       316  POPE      H8R            42.6724307626      -18.7623437604       -8.0912945684  MEMB      316             0.0000000000
     37076       316  POPE      H8S            44.0788995980      -19.4669405362       -7.4688587395  MEMB      316             0.0000000000
     37077       316  POPE      C29            42.3917408699      -20.6112317490       -7.0163990942  MEMB      316             0.0000000000
     37078       316  POPE      H91            41.3062529690      -20.5530132284       -7.1847038056  MEMB      316             0.0000000000
     37079       316  POPE      C210           42.9385117408      -21.4500868682       -6.1705604954  MEMB      316             0.0000000000
     37080       316  POPE      H101           42.3426682030      -21.9168651324       -5.3723818848  MEMB      316             0.0000000000
     37081       316  POPE      C211           44.3976978178      -21.7963559250       -6.0574441327  MEMB      316             0.0000000000
     37082       316  POPE      H11R           44.9825595040      -21.3933968965       -6.9117753905  MEMB      316             0.0000000000
     37083       316  POPE      H11S           44.5435375633      -22.8931655865       -5.9571423549  MEMB      316             0.0000000000
     37084       316  POPE      C212           44.9430142961      -21.1424454399       -4.8358676042  MEMB      316             0.0000000000
     37085       316  POPE      H12R           45.9739689643      -21.5538122229       -4.7886384416  MEMB      316             0.0000000000
     37086       316  POPE      H12S           44.4283817429      -21.4228112476       -3.8920084182  MEMB      316             0.0000000000
     37087       316  POPE      C213           45.0241544497      -19.5813765404       -5.0021701557  MEMB      316             0.0000000000
     37088       316  POPE      H13R           44.0099800954      -19.1296506086       -5.0435836903  MEMB      316             0.0000000000
     37089       316  POPE      H13S           45.6900637912      -19.4540942190       -5.8823319535  MEMB      316             0.0000000000
     37090       316  POPE      C214           45.5867395456      -18.9845739118       -3.6942614912  MEMB      316             0.0000000000
     37091       316  POPE      H14R           46.6378603816      -19.3269494997       -3.5836042772  MEMB      316             0.0000000000
     37092       316  POPE      H14S           45.0149800872      -19.3299241923       -2.8064858730  MEMB      316             0.0000000000
     37093       316  POPE      C215           45.7001900678      -17.4628586774       -3.6395930544  MEMB      316             0.0000000000
     37094       316  POPE      H15R           46.1139450413      -17.1662505427       -2.6520959046  MEMB      316             0.0000000000
     37095       316  POPE      H15S           44.7057807897      -16.9697954649       -3.6881733555  MEMB      316             0.0000000000
     37096       316  POPE      C216           46.5136720962      -16.8023592361       -4.7814939407  MEMB      316             0.0000000000
     37097       316  POPE      H16R           45.9991609763      -16.9619596901       -5.7531554871  MEMB      316             0.0000000000
     37098       316  POPE      H16S           47.4762734754      -17.3566281436       -4.8039803576  MEMB      316             0.0000000000
     37099       316  POPE      C217           46.7468374416      -15.2423563857       -4.4888062911  MEMB      316             0.0000000000
     37100       316  POPE      H17R           45.7248689945      -14.9049233016       -4.2130523583  MEMB      316             0.0000000000
     37101       316  POPE      H17S           46.9539495378      -14.7138786533       -5.4438653825  MEMB      316             0.0000000000
     37102       316  POPE      C218           47.7532401515      -14.8584109465       -3.3299821360  MEMB      316             0.0000000000
     37103       316  POPE      H18R           47.4120613750      -15.4599928860       -2.4604904521  MEMB      316             0.0000000000
     37104       316  POPE      H18S           47.8408144727      -13.7665871202       -3.1440431270  MEMB      316             0.0000000000
     37105       316  POPE      H18T           48.7303646599      -15.1935995063       -3.7388801140  MEMB      316             0.0000000000
     37106       316  POPE      C33            50.1156882429      -21.1527476549      -14.9822173990  MEMB      316             0.0000000000
     37107       316  POPE      H3X            49.5114775662      -20.3437231045      -14.5188276857  MEMB      316             0.0000000000
     37108       316  POPE      H3Y            51.0734255259      -21.1573741789      -14.4191558154  MEMB      316             0.0000000000
     37109       316  POPE      C34            49.3392550541      -22.3648223767      -14.6742623885  MEMB      316             0.0000000000
     37110       316  POPE      H4X            49.9569709665      -23.2857180082      -14.6057140636  MEMB      316             0.0000000000
     37111       316  POPE      H4Y            48.4451560854      -22.4755452549      -15.3243767373  MEMB      316             0.0000000000
     37112       316  POPE      C35            48.7032702972      -22.3417213695      -13.3015002006  MEMB      316             0.0000000000
     37113       316  POPE      H5X            48.0177633211      -23.2158384285      -13.3194048148  MEMB      316             0.0000000000
     37114       316  POPE      H5Y            48.0824266780      -21.4354635416      -13.1354550725  MEMB      316             0.0000000000
     37115       316  POPE      C36            49.8442751580      -22.3910429205      -12.3099643503  MEMB      316             0.0000000000
     37116       316  POPE      H6X            50.3547825709      -21.4061906238      -12.2485757734  MEMB      316             0.0000000000
     37117       316  POPE      H6Y            50.5948674113      -23.1203801436      -12.6827906994  MEMB      316             0.0000000000
     37118       316  POPE      C37            49.4926711026      -22.9103125459      -10.8855273208  MEMB      316             0.0000000000
     37119       316  POPE      H7X            50.4719446235      -23.0264581387      -10.3738103676  MEMB      316             0.0000000000
     37120       316  POPE      H7Y            49.0523523544      -23.9198042500      -11.0317028763  MEMB      316             0.0000000000
     37121       316  POPE      C38            48.5646854740      -21.9576152579      -10.0481841189  MEMB      316             0.0000000000
     37122       316  POPE      H8X            47.6797003162      -21.6836986422      -10.6614469792  MEMB      316             0.0000000000
     37123       316  POPE      H8Y            49.2217255058      -21.0923757700       -9.8158490932  MEMB      316             0.0000000000
     37124       316  POPE      C39            48.1707133510      -22.5226906797       -8.6386680343  MEMB      316             0.0000000000
     37125       316  POPE      H9X            47.4446913474      -23.3610254801       -8.5722788689  MEMB      316             0.0000000000
     37126       316  POPE      H9Y            47.5418639304      -21.7136991708       -8.2092474004  MEMB      316             0.0000000000
     37127       316  POPE      C310           49.4404040482      -22.8337045419       -7.7610610405  MEMB      316             0.0000000000
     37128       316  POPE      H10X           49.9610337573      -23.6260879599       -8.3401930928  MEMB      316             0.0000000000
     37129       316  POPE      H10Y           49.1478666191      -23.3669630999       -6.8313421045  MEMB      316             0.0000000000
     37130       316  POPE      C311           50.2497559668      -21.6699933297       -7.3264129480  MEMB      316             0.0000000000
     37131       316  POPE      H11X           49.5108284907      -20.9675030681       -6.8850349045  MEMB      316             0.0000000000
     37132       316  POPE      H11Y           50.5933709289      -21.0261142303       -8.1640701856  MEMB      316             0.0000000000
     37133       316  POPE      C312           51.4449221227      -21.7593078868       -6.2283823955  MEMB      316             0.0000000000
     37134       316  POPE      H12X           51.8579490784      -20.8175412443       -5.8079000483  MEMB      316             0.0000000000
     37135       316  POPE      H12Y           52.2381136590      -22.2384088775       -6.8412692124  MEMB      316             0.0000000000
     37136       316  POPE      C313           51.2265650045      -22.6826741051       -5.0431399266  MEMB      316             0.0000000000
     37137       316  POPE      H13X           52.1923523111      -22.7265461347       -4.4957367722  MEMB      316             0.0000000000
     37138       316  POPE      H13Y           51.0399905573      -23.7117844137       -5.4178969794  MEMB      316             0.0000000000
     37139       316  POPE      C314           50.1447046988      -22.3063939536       -4.0078199049  MEMB      316             0.0000000000
     37140       316  POPE      H14X           49.1854610068      -21.9235029008       -4.4171681181  MEMB      316             0.0000000000
     37141       316  POPE      H14Y           50.4029166838      -21.4408769270       -3.3608830529  MEMB      316             0.0000000000
     37142       316  POPE      C315           49.8909736279      -23.5477593157       -3.1717036162  MEMB      316             0.0000000000
     37143       316  POPE      H15X           50.8839101345      -24.0451037617       -3.1393459101  MEMB      316             0.0000000000
     37144       316  POPE      H15Y           49.0812599032      -24.0635507849       -3.7308480994  MEMB      316             0.0000000000
     37145       316  POPE      C316           49.4480873736      -23.3223407831       -1.6799749837  MEMB      316             0.0000000000
     37146       316  POPE      H16X           49.1174872950      -24.2512928277       -1.1680441969  MEMB      316             0.0000000000
     37147       316  POPE      H16Y           48.5679622650      -22.6446332727       -1.7002919363  MEMB      316             0.0000000000
     37148       316  POPE      H16Z           50.2804751568      -22.8777273521       -1.0936531995  MEMB      316             0.0000000000
     37149       317  POPC      N             -17.6593277409      -44.1582353773      -20.1349909558  MEMB      317             0.0000000000
     37150       317  POPC      C12           -17.2823846870      -45.5857131184      -20.4565585555  MEMB      317             0.0000000000
     37151       317  POPC      H12A          -16.2606078448      -45.4908364769      -20.7932639377  MEMB      317             0.0000000000
     37152       317  POPC      H12B          -17.8321609125      -45.9020657740      -21.3306680084  MEMB      317             0.0000000000
     37153       317  POPC      C13           -19.0834186396      -44.0704948046      -19.5552448455  MEMB      317             0.0000000000
     37154       317  POPC      H13A          -19.6967378746      -44.2908884786      -20.4164453931  MEMB      317             0.0000000000
     37155       317  POPC      H13B          -19.2352834631      -44.7325979064      -18.7156279053  MEMB      317             0.0000000000
     37156       317  POPC      H13C          -19.3531952405      -43.0714270558      -19.2462393720  MEMB      317             0.0000000000
     37157       317  POPC      C14           -16.7164413637      -43.6252456809      -19.0880089321  MEMB      317             0.0000000000
     37158       317  POPC      H14A          -17.0171212897      -44.0674862710      -18.1497047117  MEMB      317             0.0000000000
     37159       317  POPC      H14B          -15.6914777439      -43.6201265738      -19.4283372369  MEMB      317             0.0000000000
     37160       317  POPC      H14C          -16.9064776388      -42.5885068563      -18.8525118929  MEMB      317             0.0000000000
     37161       317  POPC      C15           -17.5833386098      -43.2367773174      -21.3442607662  MEMB      317             0.0000000000
     37162       317  POPC      H15A          -17.3941760998      -42.2194482161      -21.0349732389  MEMB      317             0.0000000000
     37163       317  POPC      H15B          -18.4125042824      -43.3854942874      -22.0201063831  MEMB      317             0.0000000000
     37164       317  POPC      H15C          -16.7450242341      -43.6322925997      -21.8985139861  MEMB      317             0.0000000000
     37165       317  POPC      C11           -17.2229571212      -46.7066244383      -19.3640681202  MEMB      317             0.0000000000
     37166       317  POPC      H11A          -16.3147718321      -46.7025147685      -18.7241433910  MEMB      317             0.0000000000
     37167       317  POPC      H11B          -17.3675530029      -47.6150816167      -19.9870596850  MEMB      317             0.0000000000
     37168       317  POPC      P             -18.9089547619      -47.9758462219      -17.8380448291  MEMB      317             0.0000000000
     37169       317  POPC      O13           -17.7030246487      -48.7894549750      -17.4930923748  MEMB      317             0.0000000000
     37170       317  POPC      O14           -19.9619972763      -48.5567740995      -18.6880231058  MEMB      317             0.0000000000
     37171       317  POPC      O12           -18.3467452830      -46.6629965510      -18.5234713319  MEMB      317             0.0000000000
     37172       317  POPC      O11           -19.5722937145      -47.4209850480      -16.5142361795  MEMB      317             0.0000000000
     37173       317  POPC      C1            -19.5919110852      -46.0201901088      -16.2389860052  MEMB      317             0.0000000000
     37174       317  POPC      HA            -20.4476147345      -45.8389922335      -15.5539606925  MEMB      317             0.0000000000
     37175       317  POPC      HB            -19.8884910212      -45.3888058326      -17.1036914895  MEMB      317             0.0000000000
     37176       317  POPC      C2            -18.4397455949      -45.3728812640      -15.5682901927  MEMB      317             0.0000000000
     37177       317  POPC      HS            -17.7372063966      -45.2476439494      -16.4198037255  MEMB      317             0.0000000000
     37178       317  POPC      O21           -17.9016794198      -46.1912718549      -14.5531106142  MEMB      317             0.0000000000
     37179       317  POPC      C21           -16.6557655081      -46.2550854560      -14.2549106780  MEMB      317             0.0000000000
     37180       317  POPC      O22           -15.8183942418      -45.3866620966      -14.4607062577  MEMB      317             0.0000000000
     37181       317  POPC      C22           -16.3409143157      -47.6375562068      -13.6221176541  MEMB      317             0.0000000000
     37182       317  POPC      H2R           -15.2857176122      -47.8469895009      -13.8996396240  MEMB      317             0.0000000000
     37183       317  POPC      H2S           -17.0704424070      -48.4069142337      -13.9540788258  MEMB      317             0.0000000000
     37184       317  POPC      C3            -18.8931256990      -44.0068089201      -14.9937691104  MEMB      317             0.0000000000
     37185       317  POPC      HX            -19.4540404546      -43.3511380874      -15.6936200556  MEMB      317             0.0000000000
     37186       317  POPC      HY            -18.0046020623      -43.3550058864      -14.8523499931  MEMB      317             0.0000000000
     37187       317  POPC      O31           -19.7419038966      -44.1694647692      -13.8271576905  MEMB      317             0.0000000000
     37188       317  POPC      C31           -19.1410523979      -43.9547623161      -12.6834859747  MEMB      317             0.0000000000
     37189       317  POPC      O32           -18.0133376089      -43.5143993111      -12.5796800347  MEMB      317             0.0000000000
     37190       317  POPC      C32           -20.0136446645      -44.3526516997      -11.4331987647  MEMB      317             0.0000000000
     37191       317  POPC      H2X           -19.8159107154      -45.3583125753      -11.0043996252  MEMB      317             0.0000000000
     37192       317  POPC      H2Y           -21.1029482308      -44.3164479104      -11.6486701475  MEMB      317             0.0000000000
     37193       317  POPC      C23           -16.4933799236      -47.6213391055      -12.0525945744  MEMB      317             0.0000000000
     37194       317  POPC      H3R           -16.6009967920      -48.6404958101      -11.6235730548  MEMB      317             0.0000000000
     37195       317  POPC      H3S           -17.4436682432      -47.0848923472      -11.8440330358  MEMB      317             0.0000000000
     37196       317  POPC      C24           -15.2960794637      -46.9993307009      -11.2369928639  MEMB      317             0.0000000000
     37197       317  POPC      H4R           -14.9045360093      -46.1044733103      -11.7663744012  MEMB      317             0.0000000000
     37198       317  POPC      H4S           -14.4770864564      -47.7471316824      -11.1709252973  MEMB      317             0.0000000000
     37199       317  POPC      C25           -15.7089345710      -46.7362237820       -9.8381170241  MEMB      317             0.0000000000
     37200       317  POPC      H5R           -15.5557503641      -47.6580950098       -9.2372767552  MEMB      317             0.0000000000
     37201       317  POPC      H5S           -16.7856610239      -46.4696498466       -9.7755098454  MEMB      317             0.0000000000
     37202       317  POPC      C26           -14.9423096002      -45.5474223484       -9.1809700917  MEMB      317             0.0000000000
     37203       317  POPC      H6R           -15.2325377604      -44.5711647433       -9.6248278854  MEMB      317             0.0000000000
     37204       317  POPC      H6S           -13.8449823505      -45.6646502218       -9.3092332714  MEMB      317             0.0000000000
     37205       317  POPC      C27           -15.2347100969      -45.3504859091       -7.6851709898  MEMB      317             0.0000000000
     37206       317  POPC      H7R           -16.3013913515      -45.1390723719       -7.4575387032  MEMB      317             0.0000000000
     37207       317  POPC      H7S           -14.5742983863      -44.5662297491       -7.2572457956  MEMB      317             0.0000000000
     37208       317  POPC      C28           -14.7921275509      -46.6140122654       -6.8077256432  MEMB      317             0.0000000000
     37209       317  POPC      H8R           -13.7177078153      -46.8675993834       -6.9327723723  MEMB      317             0.0000000000
     37210       317  POPC      H8S           -15.3392163833      -47.5005303665       -7.1938618042  MEMB      317             0.0000000000
     37211       317  POPC      C29           -15.1026256528      -46.4241668328       -5.3255487870  MEMB      317             0.0000000000
     37212       317  POPC      H91           -14.2372510349      -46.3527309296       -4.6502532647  MEMB      317             0.0000000000
     37213       317  POPC      C210          -16.3047798177      -46.5858392648       -4.7372210252  MEMB      317             0.0000000000
     37214       317  POPC      H101          -16.3268245371      -46.6222495110       -3.6380454111  MEMB      317             0.0000000000
     37215       317  POPC      C211          -17.6128134266      -47.0050239316       -5.3474423755  MEMB      317             0.0000000000
     37216       317  POPC      H11R          -17.6197049339      -47.1011672653       -6.4542531537  MEMB      317             0.0000000000
     37217       317  POPC      H11S          -18.2519350917      -46.1222948852       -5.1314942355  MEMB      317             0.0000000000
     37218       317  POPC      C212          -18.2119616142      -48.3197364085       -4.7310293868  MEMB      317             0.0000000000
     37219       317  POPC      H12R          -17.5442227991      -49.2013458996       -4.6251478679  MEMB      317             0.0000000000
     37220       317  POPC      H12S          -19.0660695419      -48.6640392725       -5.3525407743  MEMB      317             0.0000000000
     37221       317  POPC      C213          -18.8049027478      -48.0972946525       -3.3128466761  MEMB      317             0.0000000000
     37222       317  POPC      H13R          -19.5571643031      -47.3032338855       -3.5075030790  MEMB      317             0.0000000000
     37223       317  POPC      H13S          -18.0143538644      -47.7842851434       -2.5977399586  MEMB      317             0.0000000000
     37224       317  POPC      C214          -19.5023288163      -49.3782210900       -2.7606341267  MEMB      317             0.0000000000
     37225       317  POPC      H14R          -19.0631352560      -50.3194067195       -3.1550953026  MEMB      317             0.0000000000
     37226       317  POPC      H14S          -20.4828663361      -49.4020786375       -3.2824565917  MEMB      317             0.0000000000
     37227       317  POPC      C215          -19.6021753272      -49.5245273799       -1.2294561892  MEMB      317             0.0000000000
     37228       317  POPC      H15R          -18.6054914091      -49.5065915447       -0.7389235716  MEMB      317             0.0000000000
     37229       317  POPC      H15S          -20.1238356857      -50.4975807807       -1.1055261417  MEMB      317             0.0000000000
     37230       317  POPC      C216          -20.5389110170      -48.4375445332       -0.6372178492  MEMB      317             0.0000000000
     37231       317  POPC      H16R          -21.4692270260      -48.4118525762       -1.2439913048  MEMB      317             0.0000000000
     37232       317  POPC      H16S          -19.9635792054      -47.4966997811       -0.7718479882  MEMB      317             0.0000000000
     37233       317  POPC      C217          -20.9210064027      -48.5474738044        0.8450954015  MEMB      317             0.0000000000
     37234       317  POPC      H17R          -21.4346482333      -49.5270153117        0.9499373944  MEMB      317             0.0000000000
     37235       317  POPC      H17S          -21.6471847638      -47.7504220868        1.1128523509  MEMB      317             0.0000000000
     37236       317  POPC      C218          -19.7754817946      -48.4907923610        1.7673702084  MEMB      317             0.0000000000
     37237       317  POPC      H18R          -19.0124677969      -49.2282573882        1.4383178054  MEMB      317             0.0000000000
     37238       317  POPC      H18S          -20.0264455114      -48.6515727892        2.8376457464  MEMB      317             0.0000000000
     37239       317  POPC      H18T          -19.2340964828      -47.5206526075        1.7745328921  MEMB      317             0.0000000000
     37240       317  POPC      C33           -19.7861618727      -43.3669082529      -10.2083145241  MEMB      317             0.0000000000
     37241       317  POPC      H3X           -20.7337490306      -43.4296043888       -9.6317137048  MEMB      317             0.0000000000
     37242       317  POPC      H3Y           -19.6920597354      -42.3569167462      -10.6615071876  MEMB      317             0.0000000000
     37243       317  POPC      C34           -18.6392134222      -43.7711151067       -9.3132131075  MEMB      317             0.0000000000
     37244       317  POPC      H4X           -17.7346994677      -43.8884048439       -9.9475771677  MEMB      317             0.0000000000
     37245       317  POPC      H4Y           -18.8334106553      -44.7096222639       -8.7512403346  MEMB      317             0.0000000000
     37246       317  POPC      C35           -18.3187682165      -42.7489826586       -8.2307144253  MEMB      317             0.0000000000
     37247       317  POPC      H5X           -18.3068938918      -41.6984784316       -8.5921291639  MEMB      317             0.0000000000
     37248       317  POPC      H5Y           -17.2576083109      -42.8735051836       -7.9261582010  MEMB      317             0.0000000000
     37249       317  POPC      C36           -19.2616302678      -42.8871459615       -7.0082514190  MEMB      317             0.0000000000
     37250       317  POPC      H6X           -19.5730842810      -43.9496459441       -6.9165385684  MEMB      317             0.0000000000
     37251       317  POPC      H6Y           -20.2688020305      -42.4715998401       -7.2256165721  MEMB      317             0.0000000000
     37252       317  POPC      C37           -18.7588416043      -42.4153436696       -5.6478346441  MEMB      317             0.0000000000
     37253       317  POPC      H7X           -18.6425866767      -41.3104955883       -5.6586249870  MEMB      317             0.0000000000
     37254       317  POPC      H7Y           -17.7916393245      -42.9292435930       -5.4614273181  MEMB      317             0.0000000000
     37255       317  POPC      C38           -19.6772215732      -42.8758952670       -4.5128334601  MEMB      317             0.0000000000
     37256       317  POPC      H8X           -19.7026125889      -43.9860455488       -4.4775821209  MEMB      317             0.0000000000
     37257       317  POPC      H8Y           -20.7340136221      -42.6217850250       -4.7429188445  MEMB      317             0.0000000000
     37258       317  POPC      C39           -19.3579528858      -42.2189793079       -3.1680458801  MEMB      317             0.0000000000
     37259       317  POPC      H9X           -19.9326475668      -41.2774389634       -3.3005194222  MEMB      317             0.0000000000
     37260       317  POPC      H9Y           -18.2697912146      -42.0231297055       -3.2769871239  MEMB      317             0.0000000000
     37261       317  POPC      C310          -19.9388477860      -42.8745200797       -1.9120427570  MEMB      317             0.0000000000
     37262       317  POPC      H10X          -21.0215598377      -43.0978117123       -2.0224809120  MEMB      317             0.0000000000
     37263       317  POPC      H10Y          -19.7361616796      -42.2944081788       -0.9864584881  MEMB      317             0.0000000000
     37264       317  POPC      C311          -19.2496034835      -44.2040653696       -1.5942671107  MEMB      317             0.0000000000
     37265       317  POPC      H11X          -19.6643593076      -44.8318227000       -2.4117138364  MEMB      317             0.0000000000
     37266       317  POPC      H11Y          -19.6478578158      -44.5706026549       -0.6240269536  MEMB      317             0.0000000000
     37267       317  POPC      C312          -17.7370883820      -44.2214460717       -1.3523740980  MEMB      317             0.0000000000
     37268       317  POPC      H12X          -17.5345350179      -43.4214346584       -0.6085502147  MEMB      317             0.0000000000
     37269       317  POPC      H12Y          -17.2540763922      -44.0753940053       -2.3421681866  MEMB      317             0.0000000000
     37270       317  POPC      C313          -17.2194034744      -45.3318235893       -0.4876264893  MEMB      317             0.0000000000
     37271       317  POPC      H13X          -17.3957837934      -46.3113546902       -0.9813176825  MEMB      317             0.0000000000
     37272       317  POPC      H13Y          -17.7146563237      -45.3372928592        0.5068652340  MEMB      317             0.0000000000
     37273       317  POPC      C314          -15.7385902181      -44.9738160245       -0.0663618292  MEMB      317             0.0000000000
     37274       317  POPC      H14X          -15.7925776132      -44.0779818560        0.5885326897  MEMB      317             0.0000000000
     37275       317  POPC      H14Y          -15.2433424345      -44.7687315463       -1.0394972577  MEMB      317             0.0000000000
     37276       317  POPC      C315          -14.9406927902      -46.2179374388        0.6630521283  MEMB      317             0.0000000000
     37277       317  POPC      H15X          -13.9037644811      -45.9454877133        0.9543805197  MEMB      317             0.0000000000
     37278       317  POPC      H15Y          -14.9454163946      -47.0242399186       -0.1012615945  MEMB      317             0.0000000000
     37279       317  POPC      C316          -15.6643109154      -46.7436157145        1.9249064244  MEMB      317             0.0000000000
     37280       317  POPC      H16X          -16.6587134526      -47.2203009830        1.7897949668  MEMB      317             0.0000000000
     37281       317  POPC      H16Y          -15.8999585634      -45.8658585675        2.5639160524  MEMB      317             0.0000000000
     37282       317  POPC      H16Z          -15.0396513010      -47.4151213581        2.5519642345  MEMB      317             0.0000000000
     37283       318  POPE      N             -53.9816758205        4.8363427070      -22.2795647871  MEMB      318             0.0000000000
     37284       318  POPE      HN1           -54.1363316982        5.7877308891      -22.6701309186  MEMB      318             0.0000000000
     37285       318  POPE      HN2           -53.4448826669        4.3279027973      -23.0109618110  MEMB      318             0.0000000000
     37286       318  POPE      HN3           -54.9231919189        4.4073584093      -22.1741135623  MEMB      318             0.0000000000
     37287       318  POPE      C12           -53.1729599243        4.9125452837      -21.0395351629  MEMB      318             0.0000000000
     37288       318  POPE      H12A          -53.5920853070        5.6924931704      -20.3684641882  MEMB      318             0.0000000000
     37289       318  POPE      H12B          -52.0782138423        4.9959688508      -21.2095130638  MEMB      318             0.0000000000
     37290       318  POPE      C11           -53.3760117028        3.5577691499      -20.2780782218  MEMB      318             0.0000000000
     37291       318  POPE      H11A          -52.8866427955        2.7211921098      -20.8211969244  MEMB      318             0.0000000000
     37292       318  POPE      H11B          -54.4623660039        3.3654143895      -20.1471010812  MEMB      318             0.0000000000
     37293       318  POPE      P             -53.4385912170        4.2775305150      -17.6676428282  MEMB      318             0.0000000000
     37294       318  POPE      O13           -54.6480378235        5.0275822436      -17.9782730507  MEMB      318             0.0000000000
     37295       318  POPE      O14           -52.3949280691        5.1334475132      -17.0280174958  MEMB      318             0.0000000000
     37296       318  POPE      O11           -53.8450431681        3.0225078033      -16.7960030405  MEMB      318             0.0000000000
     37297       318  POPE      O12           -52.7883386687        3.6238476503      -18.9328854123  MEMB      318             0.0000000000
     37298       318  POPE      C1            -55.0094087964        2.2604569482      -17.1322446308  MEMB      318             0.0000000000
     37299       318  POPE      HA            -54.7335049522        1.3824550885      -17.7545877937  MEMB      318             0.0000000000
     37300       318  POPE      HB            -55.7357289412        2.8112524493      -17.7673858429  MEMB      318             0.0000000000
     37301       318  POPE      C2            -55.8066534761        1.8066187386      -15.8766100037  MEMB      318             0.0000000000
     37302       318  POPE      HS            -56.7683660584        1.4373082578      -16.2925904599  MEMB      318             0.0000000000
     37303       318  POPE      O21           -55.9051047844        2.7933405836      -14.8380077797  MEMB      318             0.0000000000
     37304       318  POPE      C21           -56.7598045278        3.7162298005      -15.1071126517  MEMB      318             0.0000000000
     37305       318  POPE      O22           -57.6730981715        3.6975924020      -15.9289994321  MEMB      318             0.0000000000
     37306       318  POPE      C22           -56.6432262150        4.6850240785      -13.8537657474  MEMB      318             0.0000000000
     37307       318  POPE      H2R           -57.1619121272        5.6526836458      -14.0238259903  MEMB      318             0.0000000000
     37308       318  POPE      H2S           -55.5700840145        4.9590441638      -13.7665877583  MEMB      318             0.0000000000
     37309       318  POPE      C3            -55.0367954845        0.5851581693      -15.2650501087  MEMB      318             0.0000000000
     37310       318  POPE      HX            -53.9949600144        0.8626575024      -14.9969194930  MEMB      318             0.0000000000
     37311       318  POPE      HY            -55.1030334007       -0.3481825457      -15.8640567446  MEMB      318             0.0000000000
     37312       318  POPE      O31           -55.7039676683        0.2919484541      -14.0105246538  MEMB      318             0.0000000000
     37313       318  POPE      C31           -55.1478677146       -0.5820649712      -13.1728254593  MEMB      318             0.0000000000
     37314       318  POPE      O32           -54.0937120443       -1.1433464110      -13.3239377559  MEMB      318             0.0000000000
     37315       318  POPE      C32           -56.2237998461       -0.9253654166      -12.1164107252  MEMB      318             0.0000000000
     37316       318  POPE      H2X           -56.6644633871       -1.8999733720      -12.4168692071  MEMB      318             0.0000000000
     37317       318  POPE      H2Y           -57.0065152139       -0.1369549754      -12.1071269919  MEMB      318             0.0000000000
     37318       318  POPE      C23           -57.2224577180        3.9511784249      -12.6076332822  MEMB      318             0.0000000000
     37319       318  POPE      H3R           -56.6844133651        3.0107302543      -12.3618963599  MEMB      318             0.0000000000
     37320       318  POPE      H3S           -58.3129924844        3.8438331651      -12.7907502708  MEMB      318             0.0000000000
     37321       318  POPE      C24           -56.9564242027        4.8555553577      -11.4101394516  MEMB      318             0.0000000000
     37322       318  POPE      H4R           -57.3955563278        4.3981208003      -10.4978690303  MEMB      318             0.0000000000
     37323       318  POPE      H4S           -57.5242080823        5.7788535282      -11.6539905306  MEMB      318             0.0000000000
     37324       318  POPE      C25           -55.4490372933        5.0665035382      -11.1039167931  MEMB      318             0.0000000000
     37325       318  POPE      H5R           -54.8242783907        5.4327770548      -11.9464375800  MEMB      318             0.0000000000
     37326       318  POPE      H5S           -55.0017734853        4.0836689787      -10.8425507328  MEMB      318             0.0000000000
     37327       318  POPE      C26           -55.1948524273        6.0093761384       -9.9164487142  MEMB      318             0.0000000000
     37328       318  POPE      H6R           -55.6322788580        7.0082663717      -10.1290457779  MEMB      318             0.0000000000
     37329       318  POPE      H6S           -54.0944161869        6.1229970603       -9.8142154820  MEMB      318             0.0000000000
     37330       318  POPE      C27           -55.6683247971        5.5625321818       -8.5309633978  MEMB      318             0.0000000000
     37331       318  POPE      H7R           -55.3737321085        4.5307726275       -8.2428512990  MEMB      318             0.0000000000
     37332       318  POPE      H7S           -56.7786115862        5.5656697019       -8.4912849826  MEMB      318             0.0000000000
     37333       318  POPE      C28           -55.3197617405        6.4975959921       -7.4141525434  MEMB      318             0.0000000000
     37334       318  POPE      H8R           -55.7697205973        7.4893432815       -7.6339161657  MEMB      318             0.0000000000
     37335       318  POPE      H8S           -54.2223233642        6.5759447100       -7.2598440329  MEMB      318             0.0000000000
     37336       318  POPE      C29           -56.0086236629        6.0829161808       -6.1600936643  MEMB      318             0.0000000000
     37337       318  POPE      H91           -57.0915190724        6.2069753577       -6.3082384555  MEMB      318             0.0000000000
     37338       318  POPE      C210          -55.6425082157        5.4542729968       -5.0273155796  MEMB      318             0.0000000000
     37339       318  POPE      H101          -56.4546868613        5.4549632326       -4.2854497577  MEMB      318             0.0000000000
     37340       318  POPE      C211          -54.2514526082        5.0210665012       -4.6678216403  MEMB      318             0.0000000000
     37341       318  POPE      H11R          -53.5799529921        5.1474360661       -5.5438584878  MEMB      318             0.0000000000
     37342       318  POPE      H11S          -54.2046899752        3.9957767637       -4.2424802316  MEMB      318             0.0000000000
     37343       318  POPE      C212          -53.5735894525        5.9216573643       -3.6334864563  MEMB      318             0.0000000000
     37344       318  POPE      H12R          -53.7289562970        6.9783048303       -3.9395559177  MEMB      318             0.0000000000
     37345       318  POPE      H12S          -52.5046813847        5.6506536577       -3.4981591012  MEMB      318             0.0000000000
     37346       318  POPE      C213          -54.3171306245        5.7757651913       -2.3235576132  MEMB      318             0.0000000000
     37347       318  POPE      H13R          -54.2927282138        4.7236563963       -1.9674770005  MEMB      318             0.0000000000
     37348       318  POPE      H13S          -55.3376119608        6.2098859096       -2.3904744198  MEMB      318             0.0000000000
     37349       318  POPE      C214          -53.6353470010        6.5364363355       -1.0777439649  MEMB      318             0.0000000000
     37350       318  POPE      H14R          -54.3816844783        6.3399849046       -0.2785511141  MEMB      318             0.0000000000
     37351       318  POPE      H14S          -53.7025040637        7.6309519156       -1.2562011712  MEMB      318             0.0000000000
     37352       318  POPE      C215          -52.2825112353        6.0726484557       -0.4605040553  MEMB      318             0.0000000000
     37353       318  POPE      H15R          -51.6357677195        6.9524952178       -0.2557763384  MEMB      318             0.0000000000
     37354       318  POPE      H15S          -51.8206378476        5.4501952610       -1.2564606478  MEMB      318             0.0000000000
     37355       318  POPE      C216          -52.4744685295        5.3365513091        0.8300345779  MEMB      318             0.0000000000
     37356       318  POPE      H16R          -53.0747438971        4.4424026339        0.5571077741  MEMB      318             0.0000000000
     37357       318  POPE      H16S          -53.1827578131        5.9378309612        1.4392221033  MEMB      318             0.0000000000
     37358       318  POPE      C217          -51.1984839620        4.9401358556        1.5234971778  MEMB      318             0.0000000000
     37359       318  POPE      H17R          -50.6930622567        5.9000588716        1.7631176803  MEMB      318             0.0000000000
     37360       318  POPE      H17S          -50.5320887153        4.4303766502        0.7952222191  MEMB      318             0.0000000000
     37361       318  POPE      C218          -51.2778718394        4.2181908390        2.8525201705  MEMB      318             0.0000000000
     37362       318  POPE      H18R          -51.8407529204        3.2874635557        2.6261739630  MEMB      318             0.0000000000
     37363       318  POPE      H18S          -51.8875567999        4.8767962372        3.5073821005  MEMB      318             0.0000000000
     37364       318  POPE      H18T          -50.3568239780        3.8977951873        3.3848158768  MEMB      318             0.0000000000
     37365       318  POPE      C33           -55.6419853276       -1.0646790470      -10.6802200413  MEMB      318             0.0000000000
     37366       318  POPE      H3X           -54.7727398649       -1.7387941448      -10.8361111723  MEMB      318             0.0000000000
     37367       318  POPE      H3Y           -56.4410065941       -1.4763281615      -10.0272027271  MEMB      318             0.0000000000
     37368       318  POPE      C34           -55.0332377487        0.2919875627      -10.0781058391  MEMB      318             0.0000000000
     37369       318  POPE      H4X           -55.5497248183        0.6360865484       -9.1566083618  MEMB      318             0.0000000000
     37370       318  POPE      H4Y           -55.1674766768        1.0507822848      -10.8784386646  MEMB      318             0.0000000000
     37371       318  POPE      C35           -53.5031818276        0.1570628046       -9.8421416020  MEMB      318             0.0000000000
     37372       318  POPE      H5X           -53.0217235956        0.0047428580      -10.8317462610  MEMB      318             0.0000000000
     37373       318  POPE      H5Y           -53.3900845168       -0.7765542087       -9.2506274447  MEMB      318             0.0000000000
     37374       318  POPE      C36           -52.9790333861        1.4533172760       -9.1499305797  MEMB      318             0.0000000000
     37375       318  POPE      H6X           -53.6396873091        1.5087965860       -8.2584267379  MEMB      318             0.0000000000
     37376       318  POPE      H6Y           -53.2081267575        2.3111974406       -9.8176726051  MEMB      318             0.0000000000
     37377       318  POPE      C37           -51.5030549891        1.4393915925       -8.7486994242  MEMB      318             0.0000000000
     37378       318  POPE      H7X           -50.9961931831        2.4185560486       -8.6121377843  MEMB      318             0.0000000000
     37379       318  POPE      H7Y           -50.9216005550        1.0015371677       -9.5880540013  MEMB      318             0.0000000000
     37380       318  POPE      C38           -51.1822114182        0.5462680183       -7.5088051921  MEMB      318             0.0000000000
     37381       318  POPE      H8X           -50.1249105632        0.2196808587       -7.6076819225  MEMB      318             0.0000000000
     37382       318  POPE      H8Y           -51.8770562775       -0.3191373429       -7.5596487708  MEMB      318             0.0000000000
     37383       318  POPE      C39           -51.3938022506        1.3032452779       -6.1888200442  MEMB      318             0.0000000000
     37384       318  POPE      H9X           -52.3317748339        1.8828261198       -6.0523850389  MEMB      318             0.0000000000
     37385       318  POPE      H9Y           -50.6320253289        2.1119544858       -6.1913119487  MEMB      318             0.0000000000
     37386       318  POPE      C310          -51.1288097902        0.5024523108       -4.9341993723  MEMB      318             0.0000000000
     37387       318  POPE      H10X          -50.7124919864        1.1280441192       -4.1158861481  MEMB      318             0.0000000000
     37388       318  POPE      H10Y          -50.3973078026       -0.2876630541       -5.2079572121  MEMB      318             0.0000000000
     37389       318  POPE      C311          -52.3990640142       -0.0234912932       -4.2901011390  MEMB      318             0.0000000000
     37390       318  POPE      H11X          -52.7000022798       -0.8726545353       -4.9402383863  MEMB      318             0.0000000000
     37391       318  POPE      H11Y          -53.3155292980        0.5868432578       -4.4381008184  MEMB      318             0.0000000000
     37392       318  POPE      C312          -52.3150784158       -0.4979931311       -2.8699723735  MEMB      318             0.0000000000
     37393       318  POPE      H12X          -53.2901619103       -0.9845881469       -2.6537360908  MEMB      318             0.0000000000
     37394       318  POPE      H12Y          -52.0498992493        0.3143834198       -2.1600109682  MEMB      318             0.0000000000
     37395       318  POPE      C313          -51.2000806807       -1.5713879635       -2.6226783994  MEMB      318             0.0000000000
     37396       318  POPE      H13X          -50.1651454698       -1.1998633206       -2.7814225276  MEMB      318             0.0000000000
     37397       318  POPE      H13Y          -51.4488506256       -2.2334629518       -3.4794702643  MEMB      318             0.0000000000
     37398       318  POPE      C314          -51.3251724380       -2.1263411237       -1.1319286151  MEMB      318             0.0000000000
     37399       318  POPE      H14X          -50.7981845050       -3.0825589045       -0.9263753424  MEMB      318             0.0000000000
     37400       318  POPE      H14Y          -52.4033958015       -2.2939022610       -0.9229348983  MEMB      318             0.0000000000
     37401       318  POPE      C315          -50.8873682753       -1.1455227703        0.0809472298  MEMB      318             0.0000000000
     37402       318  POPE      H15X          -51.4950448314       -1.3627339857        0.9853090426  MEMB      318             0.0000000000
     37403       318  POPE      H15Y          -51.2014207263       -0.1203491275       -0.2101034226  MEMB      318             0.0000000000
     37404       318  POPE      C316          -49.4652557523       -1.3441141459        0.4661542146  MEMB      318             0.0000000000
     37405       318  POPE      H16X          -48.8326545319       -1.3767775925       -0.4465716726  MEMB      318             0.0000000000
     37406       318  POPE      H16Y          -49.2623806689       -2.3234640751        0.9499262001  MEMB      318             0.0000000000
     37407       318  POPE      H16Z          -49.0029568822       -0.5328528677        1.0681968294  MEMB      318             0.0000000000
     37408       319  POPC      N             -27.3925475833       44.4162737363      -20.5415148936  MEMB      319             0.0000000000
     37409       319  POPC      C12           -27.7264183066       44.5731967529      -19.0105923793  MEMB      319             0.0000000000
     37410       319  POPC      H12A          -28.1098655679       45.5771936083      -18.9040146332  MEMB      319             0.0000000000
     37411       319  POPC      H12B          -26.7971053207       44.5870511123      -18.4605147329  MEMB      319             0.0000000000
     37412       319  POPC      C13           -28.6475646185       44.7477648722      -21.2371709097  MEMB      319             0.0000000000
     37413       319  POPC      H13A          -29.1345706759       45.6279154101      -20.8440293249  MEMB      319             0.0000000000
     37414       319  POPC      H13B          -28.4279126703       44.9270686823      -22.2792856883  MEMB      319             0.0000000000
     37415       319  POPC      H13C          -29.3789528391       43.9531679343      -21.2464863292  MEMB      319             0.0000000000
     37416       319  POPC      C14           -26.2309558441       45.2741576415      -20.9652209833  MEMB      319             0.0000000000
     37417       319  POPC      H14A          -25.3805551079       45.0102528020      -20.3540146962  MEMB      319             0.0000000000
     37418       319  POPC      H14B          -26.1881462211       45.0812986422      -22.0269991516  MEMB      319             0.0000000000
     37419       319  POPC      H14C          -26.5391422681       46.3070048371      -20.8970447344  MEMB      319             0.0000000000
     37420       319  POPC      C15           -27.0500042845       42.9750758899      -20.7790142492  MEMB      319             0.0000000000
     37421       319  POPC      H15A          -26.3357031960       42.6773361620      -20.0256717000  MEMB      319             0.0000000000
     37422       319  POPC      H15B          -26.5662765480       42.8387361733      -21.7349529670  MEMB      319             0.0000000000
     37423       319  POPC      H15C          -28.0149412461       42.4906049144      -20.7548384291  MEMB      319             0.0000000000
     37424       319  POPC      C11           -28.8116595029       43.7227688741      -18.4225020501  MEMB      319             0.0000000000
     37425       319  POPC      H11A          -29.7932397180       44.1565850793      -18.7099471512  MEMB      319             0.0000000000
     37426       319  POPC      H11B          -28.8988956022       43.8148123153      -17.3187634371  MEMB      319             0.0000000000
     37427       319  POPC      P             -28.1679812520       41.2839540923      -17.6099637848  MEMB      319             0.0000000000
     37428       319  POPC      O13           -27.4505792028       42.0374288420      -16.5192027555  MEMB      319             0.0000000000
     37429       319  POPC      O14           -27.4613796993       40.1059653473      -18.2283856174  MEMB      319             0.0000000000
     37430       319  POPC      O12           -28.7244537177       42.3395232861      -18.7435051107  MEMB      319             0.0000000000
     37431       319  POPC      O11           -29.5275885609       40.7464887209      -16.9429272619  MEMB      319             0.0000000000
     37432       319  POPC      C1            -30.7849749727       41.2080086572      -17.1647478666  MEMB      319             0.0000000000
     37433       319  POPC      HA            -31.3958974854       40.5274197572      -17.7955357651  MEMB      319             0.0000000000
     37434       319  POPC      HB            -30.7504064727       42.1667216198      -17.7251008592  MEMB      319             0.0000000000
     37435       319  POPC      C2            -31.4054156017       41.3491012178      -15.7936961716  MEMB      319             0.0000000000
     37436       319  POPC      HS            -32.3742073815       41.8730752385      -15.9393496669  MEMB      319             0.0000000000
     37437       319  POPC      O21           -30.5649505409       42.2468940537      -15.0073925157  MEMB      319             0.0000000000
     37438       319  POPC      C21           -30.5702562080       43.5337607771      -15.1552999022  MEMB      319             0.0000000000
     37439       319  POPC      O22           -31.2420393715       44.2564611187      -15.8977705881  MEMB      319             0.0000000000
     37440       319  POPC      C22           -29.3532664829       44.1169757382      -14.4273152914  MEMB      319             0.0000000000
     37441       319  POPC      H2R           -28.6544313792       44.3938731908      -15.2454093536  MEMB      319             0.0000000000
     37442       319  POPC      H2S           -28.8134696772       43.4266338355      -13.7444035729  MEMB      319             0.0000000000
     37443       319  POPC      C3            -31.5229112783       40.0488845067      -15.1326655884  MEMB      319             0.0000000000
     37444       319  POPC      HX            -30.5291601580       39.5534219180      -15.0966601553  MEMB      319             0.0000000000
     37445       319  POPC      HY            -32.1024445028       39.3038195918      -15.7186185705  MEMB      319             0.0000000000
     37446       319  POPC      O31           -32.1249812047       40.1403288415      -13.7691986666  MEMB      319             0.0000000000
     37447       319  POPC      C31           -31.2835126496       40.3493842510      -12.7754518837  MEMB      319             0.0000000000
     37448       319  POPC      O32           -30.1643839127       40.8296712589      -12.8698672023  MEMB      319             0.0000000000
     37449       319  POPC      C32           -31.9391583665       40.0171253284      -11.4262358542  MEMB      319             0.0000000000
     37450       319  POPC      H2X           -32.0342169248       38.9243765637      -11.2496418717  MEMB      319             0.0000000000
     37451       319  POPC      H2Y           -32.9294656320       40.5177942271      -11.4804864626  MEMB      319             0.0000000000
     37452       319  POPC      C23           -29.8815374462       45.3279322055      -13.6332923592  MEMB      319             0.0000000000
     37453       319  POPC      H3R           -30.4551788423       46.0061529344      -14.3005804846  MEMB      319             0.0000000000
     37454       319  POPC      H3S           -29.0078281705       45.9836912865      -13.4309737550  MEMB      319             0.0000000000
     37455       319  POPC      C24           -30.7056560554       45.0683383176      -12.4033529406  MEMB      319             0.0000000000
     37456       319  POPC      H4R           -30.1646752445       44.3926645784      -11.7068433175  MEMB      319             0.0000000000
     37457       319  POPC      H4S           -31.7087779189       44.6962463249      -12.7027107799  MEMB      319             0.0000000000
     37458       319  POPC      C25           -30.9915857298       46.4053126961      -11.6462323815  MEMB      319             0.0000000000
     37459       319  POPC      H5R           -31.8748160995       46.9309817869      -12.0680109907  MEMB      319             0.0000000000
     37460       319  POPC      H5S           -30.1656930163       47.0827600233      -11.9516624826  MEMB      319             0.0000000000
     37461       319  POPC      C26           -31.1910131135       46.2644559883      -10.1351464696  MEMB      319             0.0000000000
     37462       319  POPC      H6R           -31.2277414036       47.3114515764       -9.7653182728  MEMB      319             0.0000000000
     37463       319  POPC      H6S           -30.2380810004       45.7623701547       -9.8628391360  MEMB      319             0.0000000000
     37464       319  POPC      C27           -32.4573658263       45.4945530584       -9.7411251074  MEMB      319             0.0000000000
     37465       319  POPC      H7R           -32.4890536871       44.5186824546      -10.2712137135  MEMB      319             0.0000000000
     37466       319  POPC      H7S           -33.2422992755       46.1517700594      -10.1727111002  MEMB      319             0.0000000000
     37467       319  POPC      C28           -32.7167145852       45.4084812727       -8.1654505077  MEMB      319             0.0000000000
     37468       319  POPC      H8R           -31.8817450645       44.8026701905       -7.7529703995  MEMB      319             0.0000000000
     37469       319  POPC      H8S           -33.6174438733       44.7895808812       -7.9655259048  MEMB      319             0.0000000000
     37470       319  POPC      C29           -32.7750209271       46.7084984426       -7.4446192683  MEMB      319             0.0000000000
     37471       319  POPC      H91           -33.6906728997       47.2954132437       -7.6092777701  MEMB      319             0.0000000000
     37472       319  POPC      C210          -31.8356148258       47.2969129311       -6.6056246660  MEMB      319             0.0000000000
     37473       319  POPC      H101          -31.8922476657       48.2459665690       -6.0523708163  MEMB      319             0.0000000000
     37474       319  POPC      C211          -30.5567160209       46.5142885455       -6.2907097365  MEMB      319             0.0000000000
     37475       319  POPC      H11R          -30.1463503236       45.8861406136       -7.1100703390  MEMB      319             0.0000000000
     37476       319  POPC      H11S          -30.7727358832       45.8943168080       -5.3944445953  MEMB      319             0.0000000000
     37477       319  POPC      C212          -29.4694959096       47.5251717401       -5.9314955776  MEMB      319             0.0000000000
     37478       319  POPC      H12R          -29.6814326842       47.9663417322       -4.9341128200  MEMB      319             0.0000000000
     37479       319  POPC      H12S          -29.4537020819       48.2868392966       -6.7401576494  MEMB      319             0.0000000000
     37480       319  POPC      C213          -28.0085060598       46.8187212590       -5.8656009603  MEMB      319             0.0000000000
     37481       319  POPC      H13R          -27.1700289123       47.5347257829       -6.0020363507  MEMB      319             0.0000000000
     37482       319  POPC      H13S          -28.0041282243       46.0962099136       -6.7095671082  MEMB      319             0.0000000000
     37483       319  POPC      C214          -27.7468647361       46.1194444957       -4.5405320003  MEMB      319             0.0000000000
     37484       319  POPC      H14R          -28.5064588110       45.3157306773       -4.4338457723  MEMB      319             0.0000000000
     37485       319  POPC      H14S          -27.7180115990       46.7856159584       -3.6518782620  MEMB      319             0.0000000000
     37486       319  POPC      C215          -26.3592453687       45.4435244025       -4.6218282687  MEMB      319             0.0000000000
     37487       319  POPC      H15R          -25.6135859870       46.2598707782       -4.7308776938  MEMB      319             0.0000000000
     37488       319  POPC      H15S          -26.3304170464       44.8303707343       -5.5478579949  MEMB      319             0.0000000000
     37489       319  POPC      C216          -25.9259939714       44.4562794132       -3.5045125530  MEMB      319             0.0000000000
     37490       319  POPC      H16R          -24.9058055025       44.0831989801       -3.7376365973  MEMB      319             0.0000000000
     37491       319  POPC      H16S          -26.4874928917       43.5026778854       -3.6029200757  MEMB      319             0.0000000000
     37492       319  POPC      C217          -26.0428288944       44.9929333296       -2.0435571855  MEMB      319             0.0000000000
     37493       319  POPC      H17R          -27.1371855195       45.0929188935       -1.8801339947  MEMB      319             0.0000000000
     37494       319  POPC      H17S          -25.5623753076       45.9908515818       -1.9561240291  MEMB      319             0.0000000000
     37495       319  POPC      C218          -25.4839793547       44.0693534544       -1.0709241277  MEMB      319             0.0000000000
     37496       319  POPC      H18R          -25.9490435483       44.3091904002       -0.0908636221  MEMB      319             0.0000000000
     37497       319  POPC      H18S          -24.3821878020       44.1838814936       -1.1561191333  MEMB      319             0.0000000000
     37498       319  POPC      H18T          -25.6826869893       43.0214173309       -1.3818349382  MEMB      319             0.0000000000
     37499       319  POPC      C33           -31.0781940583       40.5370331201      -10.2115143716  MEMB      319             0.0000000000
     37500       319  POPC      H3X           -30.0111106381       40.2881371421      -10.3951022221  MEMB      319             0.0000000000
     37501       319  POPC      H3Y           -31.3804636277       39.9921591117       -9.2916957627  MEMB      319             0.0000000000
     37502       319  POPC      C34           -31.3062749222       42.0500932768      -10.0617585824  MEMB      319             0.0000000000
     37503       319  POPC      H4X           -32.3321946988       42.2483172835       -9.6842437693  MEMB      319             0.0000000000
     37504       319  POPC      H4Y           -31.3010014924       42.6306924498      -11.0089637585  MEMB      319             0.0000000000
     37505       319  POPC      C35           -30.2195943880       42.5869040097       -9.1641713568  MEMB      319             0.0000000000
     37506       319  POPC      H5X           -30.2047564315       43.6956543110       -9.0950821924  MEMB      319             0.0000000000
     37507       319  POPC      H5Y           -29.2728013950       42.3413953787       -9.6910773054  MEMB      319             0.0000000000
     37508       319  POPC      C36           -30.0936539445       41.9305542489       -7.8125130971  MEMB      319             0.0000000000
     37509       319  POPC      H6X           -29.2323717761       42.3974595546       -7.2885724628  MEMB      319             0.0000000000
     37510       319  POPC      H6Y           -29.8387412530       40.8503575950       -7.8626721714  MEMB      319             0.0000000000
     37511       319  POPC      C37           -31.3309749140       42.0809471848       -7.0458198657  MEMB      319             0.0000000000
     37512       319  POPC      H7X           -32.1621155310       41.5740820124       -7.5811826479  MEMB      319             0.0000000000
     37513       319  POPC      H7Y           -31.5837488381       43.1600106123       -6.9680472899  MEMB      319             0.0000000000
     37514       319  POPC      C38           -31.3062283651       41.6414314308       -5.5318368174  MEMB      319             0.0000000000
     37515       319  POPC      H8X           -32.3267062657       41.8387291597       -5.1393823356  MEMB      319             0.0000000000
     37516       319  POPC      H8Y           -30.6631870112       42.2995525857       -4.9091847019  MEMB      319             0.0000000000
     37517       319  POPC      C39           -31.1295818611       40.1698804323       -5.3198388625  MEMB      319             0.0000000000
     37518       319  POPC      H9X           -31.5193431187       39.5617664585       -6.1639975190  MEMB      319             0.0000000000
     37519       319  POPC      H9Y           -31.6814824183       39.6875103213       -4.4849456690  MEMB      319             0.0000000000
     37520       319  POPC      C310          -29.6294872761       39.7642414422       -5.1122103021  MEMB      319             0.0000000000
     37521       319  POPC      H10X          -28.9226546810       40.6189303295       -5.1771387842  MEMB      319             0.0000000000
     37522       319  POPC      H10Y          -29.2188385996       39.2843829513       -6.0262256527  MEMB      319             0.0000000000
     37523       319  POPC      C311          -29.3187327133       38.8305983873       -3.8768761616  MEMB      319             0.0000000000
     37524       319  POPC      H11X          -28.2167969088       38.7038281875       -3.9400243017  MEMB      319             0.0000000000
     37525       319  POPC      H11Y          -29.6900812597       37.7952057470       -4.0330297250  MEMB      319             0.0000000000
     37526       319  POPC      C312          -29.5785741233       39.4401560684       -2.4826522587  MEMB      319             0.0000000000
     37527       319  POPC      H12X          -29.2023989203       38.6455512983       -1.8033767281  MEMB      319             0.0000000000
     37528       319  POPC      H12Y          -30.6422202752       39.5936339904       -2.2008338355  MEMB      319             0.0000000000
     37529       319  POPC      C313          -28.9521027199       40.8579527549       -2.2652239859  MEMB      319             0.0000000000
     37530       319  POPC      H13X          -29.6182615433       41.5530170156       -2.8196959695  MEMB      319             0.0000000000
     37531       319  POPC      H13Y          -27.9732030643       40.8734809409       -2.7904252131  MEMB      319             0.0000000000
     37532       319  POPC      C314          -28.7662606893       41.3598771815       -0.8308930375  MEMB      319             0.0000000000
     37533       319  POPC      H14X          -29.6726441978       41.2581786123       -0.1965055089  MEMB      319             0.0000000000
     37534       319  POPC      H14Y          -28.4470568619       42.4229119279       -0.8797519143  MEMB      319             0.0000000000
     37535       319  POPC      C315          -27.5908249373       40.6826515998       -0.0777355469  MEMB      319             0.0000000000
     37536       319  POPC      H15X          -26.6763411313       40.9657323099       -0.6415668320  MEMB      319             0.0000000000
     37537       319  POPC      H15Y          -27.6587856716       39.5793945526        0.0341822660  MEMB      319             0.0000000000
     37538       319  POPC      C316          -27.5298454230       41.0726597457        1.4036920166  MEMB      319             0.0000000000
     37539       319  POPC      H16X          -27.5094210265       42.1825138881        1.4498169767  MEMB      319             0.0000000000
     37540       319  POPC      H16Y          -26.5803878438       40.7064379213        1.8494865079  MEMB      319             0.0000000000
     37541       319  POPC      H16Z          -28.3514942344       40.6965440433        2.0500280600  MEMB      319             0.0000000000
     37542       320  POPC      N             -52.2143631969       18.3039278679      -19.1939850107  MEMB      320             0.0000000000
     37543       320  POPC      C12           -50.9797882207       19.2333820615      -19.1079103670  MEMB      320             0.0000000000
     37544       320  POPC      H12A          -50.4811041717       19.1925459268      -18.1508071430  MEMB      320             0.0000000000
     37545       320  POPC      H12B          -51.2430554463       20.2636619440      -19.2966269171  MEMB      320             0.0000000000
     37546       320  POPC      C13           -51.7394590388       16.8886587414      -18.8433904510  MEMB      320             0.0000000000
     37547       320  POPC      H13A          -52.5814500194       16.2322898159      -19.0065797610  MEMB      320             0.0000000000
     37548       320  POPC      H13B          -50.7881190276       16.8856053980      -19.3546075583  MEMB      320             0.0000000000
     37549       320  POPC      H13C          -51.5460839384       17.0490530856      -17.7930192137  MEMB      320             0.0000000000
     37550       320  POPC      C14           -53.1544978841       18.7892159257      -18.0914799120  MEMB      320             0.0000000000
     37551       320  POPC      H14A          -52.6462713051       18.6550352660      -17.1480281226  MEMB      320             0.0000000000
     37552       320  POPC      H14B          -53.5794350565       19.7510391167      -18.3379035681  MEMB      320             0.0000000000
     37553       320  POPC      H14C          -53.9076536285       18.0268532269      -17.9574673019  MEMB      320             0.0000000000
     37554       320  POPC      C15           -52.8131310230       18.4028207435      -20.5351895729  MEMB      320             0.0000000000
     37555       320  POPC      H15A          -52.0792456110       18.1060071897      -21.2698418455  MEMB      320             0.0000000000
     37556       320  POPC      H15B          -53.1099398204       19.4198734327      -20.7447335792  MEMB      320             0.0000000000
     37557       320  POPC      H15C          -53.6319326648       17.7330779034      -20.7529245323  MEMB      320             0.0000000000
     37558       320  POPC      C11           -49.8495351049       18.9492298493      -20.0976869578  MEMB      320             0.0000000000
     37559       320  POPC      H11A          -49.0982229091       19.7673190567      -20.1217904283  MEMB      320             0.0000000000
     37560       320  POPC      H11B          -50.1708025501       18.8406663162      -21.1556672886  MEMB      320             0.0000000000
     37561       320  POPC      P             -48.2589831808       17.4175341768      -18.6167408132  MEMB      320             0.0000000000
     37562       320  POPC      O13           -46.9250897128       17.0513487363      -19.2458146343  MEMB      320             0.0000000000
     37563       320  POPC      O14           -48.9342204876       16.4820878471      -17.6996620093  MEMB      320             0.0000000000
     37564       320  POPC      O12           -49.2519359409       17.7733040815      -19.7143794522  MEMB      320             0.0000000000
     37565       320  POPC      O11           -48.1072012788       18.8028314541      -17.8537608053  MEMB      320             0.0000000000
     37566       320  POPC      C1            -47.6015834914       18.8872962758      -16.5169131701  MEMB      320             0.0000000000
     37567       320  POPC      HA            -46.6618168039       19.4797358935      -16.5036957304  MEMB      320             0.0000000000
     37568       320  POPC      HB            -47.3575537045       17.9386620376      -15.9926388390  MEMB      320             0.0000000000
     37569       320  POPC      C2            -48.6139579155       19.6553969622      -15.6333427467  MEMB      320             0.0000000000
     37570       320  POPC      HS            -48.1452838983       19.7760998175      -14.6332946661  MEMB      320             0.0000000000
     37571       320  POPC      O21           -49.8819131059       19.0171523657      -15.5965844882  MEMB      320             0.0000000000
     37572       320  POPC      C21           -49.9035460492       17.8810772088      -14.8815417368  MEMB      320             0.0000000000
     37573       320  POPC      O22           -49.0242016528       17.3347953506      -14.2108555639  MEMB      320             0.0000000000
     37574       320  POPC      C22           -51.3561212025       17.4537074636      -14.8309768972  MEMB      320             0.0000000000
     37575       320  POPC      H2R           -51.5881794786       16.5106106938      -14.2914970238  MEMB      320             0.0000000000
     37576       320  POPC      H2S           -51.6381590085       17.3402423945      -15.8995748232  MEMB      320             0.0000000000
     37577       320  POPC      C3            -48.7488603528       21.0357245539      -16.1376328219  MEMB      320             0.0000000000
     37578       320  POPC      HX            -49.1800712240       21.0561904613      -17.1613317653  MEMB      320             0.0000000000
     37579       320  POPC      HY            -47.7015664647       21.4062126500      -16.1529671285  MEMB      320             0.0000000000
     37580       320  POPC      O31           -49.6445532998       21.7390083604      -15.3063818771  MEMB      320             0.0000000000
     37581       320  POPC      C31           -49.1173006366       22.3104599430      -14.2307857571  MEMB      320             0.0000000000
     37582       320  POPC      O32           -47.9012296212       22.4702689255      -14.0779981492  MEMB      320             0.0000000000
     37583       320  POPC      C32           -50.3107470510       22.5395915825      -13.2411403592  MEMB      320             0.0000000000
     37584       320  POPC      H2X           -50.8714649991       21.5851379421      -13.1466186827  MEMB      320             0.0000000000
     37585       320  POPC      H2Y           -50.9901646864       23.3490943187      -13.5838033785  MEMB      320             0.0000000000
     37586       320  POPC      C23           -52.2238046932       18.6580970740      -14.3078797343  MEMB      320             0.0000000000
     37587       320  POPC      H3R           -52.1942684639       19.5193493118      -15.0090880851  MEMB      320             0.0000000000
     37588       320  POPC      H3S           -51.8222799175       19.0489425369      -13.3485370022  MEMB      320             0.0000000000
     37589       320  POPC      C24           -53.7156422729       18.3429234236      -14.0745913732  MEMB      320             0.0000000000
     37590       320  POPC      H4R           -53.9317719016       17.5661033682      -13.3102879387  MEMB      320             0.0000000000
     37591       320  POPC      H4S           -54.0792468128       17.9516182662      -15.0487537537  MEMB      320             0.0000000000
     37592       320  POPC      C25           -54.6394633961       19.5151901236      -13.8042159697  MEMB      320             0.0000000000
     37593       320  POPC      H5R           -55.7048641588       19.2257123310      -13.6799362056  MEMB      320             0.0000000000
     37594       320  POPC      H5S           -54.6613528469       20.3109980128      -14.5791557448  MEMB      320             0.0000000000
     37595       320  POPC      C26           -54.2112114125       20.3862496826      -12.5603523527  MEMB      320             0.0000000000
     37596       320  POPC      H6R           -54.8613811520       21.2870005922      -12.5761027168  MEMB      320             0.0000000000
     37597       320  POPC      H6S           -53.1304587070       20.6178496975      -12.6728513037  MEMB      320             0.0000000000
     37598       320  POPC      C27           -54.5405289864       19.6407536993      -11.2613201652  MEMB      320             0.0000000000
     37599       320  POPC      H7R           -54.0973612474       18.6254396403      -11.3453481536  MEMB      320             0.0000000000
     37600       320  POPC      H7S           -55.6274306830       19.5575776455      -11.0467315739  MEMB      320             0.0000000000
     37601       320  POPC      C28           -53.8185961005       20.4272913794      -10.0918363059  MEMB      320             0.0000000000
     37602       320  POPC      H8R           -54.1930745901       21.4729544857      -10.0658504645  MEMB      320             0.0000000000
     37603       320  POPC      H8S           -52.7391938810       20.4672148137      -10.3518713089  MEMB      320             0.0000000000
     37604       320  POPC      C29           -53.9851827697       19.5995979358       -8.8067715311  MEMB      320             0.0000000000
     37605       320  POPC      H91           -54.2366885588       18.5429659120       -8.9807625365  MEMB      320             0.0000000000
     37606       320  POPC      C210          -53.9920136133       20.0440062557       -7.5498251346  MEMB      320             0.0000000000
     37607       320  POPC      H101          -54.0758549722       19.3021193606       -6.7420042122  MEMB      320             0.0000000000
     37608       320  POPC      C211          -53.8352448824       21.4809149720       -7.1089704904  MEMB      320             0.0000000000
     37609       320  POPC      H11R          -54.7625906682       21.8406445494       -6.6140506935  MEMB      320             0.0000000000
     37610       320  POPC      H11S          -53.8872437372       22.1896546267       -7.9629640149  MEMB      320             0.0000000000
     37611       320  POPC      C212          -52.7348088033       21.7855946089       -6.1239231273  MEMB      320             0.0000000000
     37612       320  POPC      H12R          -52.4614176837       22.8582877911       -6.0295433567  MEMB      320             0.0000000000
     37613       320  POPC      H12S          -51.8279442564       21.2353468141       -6.4542945897  MEMB      320             0.0000000000
     37614       320  POPC      C213          -53.0913454505       21.3849077485       -4.6928087711  MEMB      320             0.0000000000
     37615       320  POPC      H13R          -53.3708588973       20.3096762582       -4.7012176494  MEMB      320             0.0000000000
     37616       320  POPC      H13S          -53.9926919151       21.9159483180       -4.3187886985  MEMB      320             0.0000000000
     37617       320  POPC      C214          -51.9875704559       21.6138927692       -3.6397600933  MEMB      320             0.0000000000
     37618       320  POPC      H14R          -52.3800172193       21.5407385773       -2.6029587041  MEMB      320             0.0000000000
     37619       320  POPC      H14S          -51.7397121883       22.6914841719       -3.7478546228  MEMB      320             0.0000000000
     37620       320  POPC      C215          -50.6416725487       20.8154890452       -3.8273061255  MEMB      320             0.0000000000
     37621       320  POPC      H15R          -50.6148281882       20.7411469377       -4.9354910440  MEMB      320             0.0000000000
     37622       320  POPC      H15S          -50.8445748207       19.7711302170       -3.5072024721  MEMB      320             0.0000000000
     37623       320  POPC      C216          -49.3396837803       21.4359722558       -3.1914360031  MEMB      320             0.0000000000
     37624       320  POPC      H16R          -49.5918523526       21.4137137162       -2.1096600563  MEMB      320             0.0000000000
     37625       320  POPC      H16S          -49.1574973286       22.5125161944       -3.3968191416  MEMB      320             0.0000000000
     37626       320  POPC      C217          -48.1144277935       20.6533432021       -3.4690519451  MEMB      320             0.0000000000
     37627       320  POPC      H17R          -47.7146200284       20.7523710060       -4.5008796557  MEMB      320             0.0000000000
     37628       320  POPC      H17S          -48.4339070780       19.5895420816       -3.4449472614  MEMB      320             0.0000000000
     37629       320  POPC      C218          -47.0826234868       20.7812311469       -2.3597650715  MEMB      320             0.0000000000
     37630       320  POPC      H18R          -46.5923938179       21.7782241313       -2.3586738720  MEMB      320             0.0000000000
     37631       320  POPC      H18S          -46.2096159543       20.1159057591       -2.5315821120  MEMB      320             0.0000000000
     37632       320  POPC      H18T          -47.5091420949       20.5514415537       -1.3599658281  MEMB      320             0.0000000000
     37633       320  POPC      C33           -49.7727033457       22.7577295615      -11.8167965901  MEMB      320             0.0000000000
     37634       320  POPC      H3X           -50.5431422954       23.2833426406      -11.2130789046  MEMB      320             0.0000000000
     37635       320  POPC      H3Y           -48.8471693718       23.3715911412      -11.8464890793  MEMB      320             0.0000000000
     37636       320  POPC      C34           -49.3366467535       21.5271631284      -11.0119856546  MEMB      320             0.0000000000
     37637       320  POPC      H4X           -48.5720210740       21.0090336902      -11.6294080187  MEMB      320             0.0000000000
     37638       320  POPC      H4Y           -50.1987738330       20.8274527273      -10.9737342610  MEMB      320             0.0000000000
     37639       320  POPC      C35           -48.8584435885       21.6902437245       -9.5726883600  MEMB      320             0.0000000000
     37640       320  POPC      H5X           -49.5798409759       22.2707617947       -8.9587620423  MEMB      320             0.0000000000
     37641       320  POPC      H5Y           -47.9028208076       22.2490933001       -9.4789145100  MEMB      320             0.0000000000
     37642       320  POPC      C36           -48.6508255796       20.4133762605       -8.7874369545  MEMB      320             0.0000000000
     37643       320  POPC      H6X           -48.0460778851       20.4523412876       -7.8562638714  MEMB      320             0.0000000000
     37644       320  POPC      H6Y           -47.9832831250       19.8811477724       -9.4983803030  MEMB      320             0.0000000000
     37645       320  POPC      C37           -49.9681347285       19.5622673115       -8.6420489218  MEMB      320             0.0000000000
     37646       320  POPC      H7X           -50.3355081874       19.2160674604       -9.6317473015  MEMB      320             0.0000000000
     37647       320  POPC      H7Y           -50.7385797250       20.2704562852       -8.2689488468  MEMB      320             0.0000000000
     37648       320  POPC      C38           -49.7420349948       18.4039586243       -7.6427980868  MEMB      320             0.0000000000
     37649       320  POPC      H8X           -49.7906498508       18.8582299908       -6.6300812738  MEMB      320             0.0000000000
     37650       320  POPC      H8Y           -48.7524047573       17.9042934055       -7.5700803764  MEMB      320             0.0000000000
     37651       320  POPC      C39           -50.8596508111       17.2760591518       -7.8010930087  MEMB      320             0.0000000000
     37652       320  POPC      H9X           -50.7103458459       16.8721032346       -8.8252255390  MEMB      320             0.0000000000
     37653       320  POPC      H9Y           -51.8726241679       17.7117367036       -7.6654780531  MEMB      320             0.0000000000
     37654       320  POPC      C310          -50.7746539353       16.1333661904       -6.7293118904  MEMB      320             0.0000000000
     37655       320  POPC      H10X          -49.7845244658       15.6294942136       -6.7205096691  MEMB      320             0.0000000000
     37656       320  POPC      H10Y          -51.4453741454       15.2847365029       -6.9828538396  MEMB      320             0.0000000000
     37657       320  POPC      C311          -51.2475165223       16.6709694047       -5.3868494212  MEMB      320             0.0000000000
     37658       320  POPC      H11X          -52.0099539253       17.4781789411       -5.3491311193  MEMB      320             0.0000000000
     37659       320  POPC      H11Y          -50.3476583984       17.2530933926       -5.0940908481  MEMB      320             0.0000000000
     37660       320  POPC      C312          -51.5294595527       15.6474334193       -4.2708578938  MEMB      320             0.0000000000
     37661       320  POPC      H12X          -50.5873575155       15.0585738939       -4.2677923522  MEMB      320             0.0000000000
     37662       320  POPC      H12Y          -52.3780993349       14.9914346746       -4.5603356680  MEMB      320             0.0000000000
     37663       320  POPC      C313          -51.7690067316       16.2784040792       -2.8300395857  MEMB      320             0.0000000000
     37664       320  POPC      H13X          -51.8005811109       15.4467600087       -2.0940427324  MEMB      320             0.0000000000
     37665       320  POPC      H13Y          -52.7890275546       16.7171557688       -2.7929495597  MEMB      320             0.0000000000
     37666       320  POPC      C314          -50.6163204100       17.1734317531       -2.3297934643  MEMB      320             0.0000000000
     37667       320  POPC      H14X          -51.0016268209       17.6643476379       -1.4106295719  MEMB      320             0.0000000000
     37668       320  POPC      H14Y          -50.4068520063       17.9290883467       -3.1168305258  MEMB      320             0.0000000000
     37669       320  POPC      C315          -49.2995935781       16.3852587927       -1.9250122819  MEMB      320             0.0000000000
     37670       320  POPC      H15X          -48.9097160710       16.0156147927       -2.8974729646  MEMB      320             0.0000000000
     37671       320  POPC      H15Y          -49.4530593539       15.4832316973       -1.2948404056  MEMB      320             0.0000000000
     37672       320  POPC      C316          -48.1911360168       17.2618604314       -1.2853197646  MEMB      320             0.0000000000
     37673       320  POPC      H16X          -47.2425502933       16.6842360802       -1.2560509095  MEMB      320             0.0000000000
     37674       320  POPC      H16Y          -48.4350050799       17.5336867974       -0.2360539335  MEMB      320             0.0000000000
     37675       320  POPC      H16Z          -48.1132735912       18.1788451655       -1.9077329096  MEMB      320             0.0000000000
     37676       321  POPC      N              37.1157727423       44.7753688383      -17.2823065158  MEMB      321             0.0000000000
     37677       321  POPC      C12            37.8856832695       45.0854395153      -18.5813924030  MEMB      321             0.0000000000
     37678       321  POPC      H12A           37.8816838504       44.2690804627      -19.2884581608  MEMB      321             0.0000000000
     37679       321  POPC      H12B           38.9402489088       45.1927980232      -18.3745940801  MEMB      321             0.0000000000
     37680       321  POPC      C13            36.7316903374       46.0932992627      -16.5871623393  MEMB      321             0.0000000000
     37681       321  POPC      H13A           37.5578417134       46.7863637999      -16.5277027815  MEMB      321             0.0000000000
     37682       321  POPC      H13B           35.8409379179       46.3867144136      -17.1227625334  MEMB      321             0.0000000000
     37683       321  POPC      H13C           36.4620068385       45.8251215308      -15.5763450456  MEMB      321             0.0000000000
     37684       321  POPC      C14            35.9262760451       43.8884939236      -17.5191009612  MEMB      321             0.0000000000
     37685       321  POPC      H14A           35.3269070838       44.4140786551      -18.2477418687  MEMB      321             0.0000000000
     37686       321  POPC      H14B           36.3154865343       42.9849730664      -17.9647075560  MEMB      321             0.0000000000
     37687       321  POPC      H14C           35.3852953403       43.7521738026      -16.5943542691  MEMB      321             0.0000000000
     37688       321  POPC      C15            38.1624693920       44.0699666194      -16.3528451959  MEMB      321             0.0000000000
     37689       321  POPC      H15A           38.5105267794       43.1325502266      -16.7608976134  MEMB      321             0.0000000000
     37690       321  POPC      H15B           37.6703626033       43.6905844399      -15.4694993367  MEMB      321             0.0000000000
     37691       321  POPC      H15C           39.0100619818       44.7044636083      -16.1397719098  MEMB      321             0.0000000000
     37692       321  POPC      C11            37.3875777084       46.3744775564      -19.3522674914  MEMB      321             0.0000000000
     37693       321  POPC      H11A           37.9296886790       46.4968997088      -20.3142703538  MEMB      321             0.0000000000
     37694       321  POPC      H11B           37.7500944656       47.2513787059      -18.7743859121  MEMB      321             0.0000000000
     37695       321  POPC      P              35.3190177724       45.7856203463      -20.7360621499  MEMB      321             0.0000000000
     37696       321  POPC      O13            35.3366924418       44.3233042507      -20.6291738083  MEMB      321             0.0000000000
     37697       321  POPC      O14            35.8976934041       46.3036149244      -21.9660302480  MEMB      321             0.0000000000
     37698       321  POPC      O12            35.9845890219       46.3659662690      -19.3991323096  MEMB      321             0.0000000000
     37699       321  POPC      O11            33.8478834682       46.3521947922      -20.5945265351  MEMB      321             0.0000000000
     37700       321  POPC      C1             33.0378936064       45.9085085097      -19.4585900335  MEMB      321             0.0000000000
     37701       321  POPC      HA             33.5307828330       45.1483025948      -18.8155751982  MEMB      321             0.0000000000
     37702       321  POPC      HB             32.1645066347       45.4629735471      -19.9810981366  MEMB      321             0.0000000000
     37703       321  POPC      C2             32.4524063759       47.1465548580      -18.7841478976  MEMB      321             0.0000000000
     37704       321  POPC      HS             32.0142528449       47.7215371497      -19.6277935786  MEMB      321             0.0000000000
     37705       321  POPC      O21            33.5156879993       47.8418258899      -18.1117729869  MEMB      321             0.0000000000
     37706       321  POPC      C21            33.3985251525       49.0999700640      -17.8135954128  MEMB      321             0.0000000000
     37707       321  POPC      O22            32.4233189923       49.8121767372      -17.9276001410  MEMB      321             0.0000000000
     37708       321  POPC      C22            34.8251098320       49.4854800959      -17.3158884905  MEMB      321             0.0000000000
     37709       321  POPC      H2R            34.9095879427       50.5893573583      -17.4088353847  MEMB      321             0.0000000000
     37710       321  POPC      H2S            35.5089615315       49.1192776094      -18.1112272029  MEMB      321             0.0000000000
     37711       321  POPC      C3             31.2438282866       46.8511385427      -17.7651488320  MEMB      321             0.0000000000
     37712       321  POPC      HX             30.4782355451       46.3019512278      -18.3538612584  MEMB      321             0.0000000000
     37713       321  POPC      HY             30.8402181487       47.8575389776      -17.5231202186  MEMB      321             0.0000000000
     37714       321  POPC      O31            31.6536228312       46.0025777996      -16.6519599632  MEMB      321             0.0000000000
     37715       321  POPC      C31            31.5161608701       46.4275614227      -15.3804622895  MEMB      321             0.0000000000
     37716       321  POPC      O32            30.9574470735       47.4433884235      -14.9958487274  MEMB      321             0.0000000000
     37717       321  POPC      C32            32.2053464267       45.4751934395      -14.4902660204  MEMB      321             0.0000000000
     37718       321  POPC      H2X            32.0886991615       44.4160355034      -14.8047484835  MEMB      321             0.0000000000
     37719       321  POPC      H2Y            31.6403039541       45.6477139496      -13.5493706379  MEMB      321             0.0000000000
     37720       321  POPC      C23            35.0140888842       49.0617427051      -15.8452598056  MEMB      321             0.0000000000
     37721       321  POPC      H3R            36.0784115492       49.2377703843      -15.5796425738  MEMB      321             0.0000000000
     37722       321  POPC      H3S            34.7682857078       47.9935429542      -15.6640103158  MEMB      321             0.0000000000
     37723       321  POPC      C24            34.1113995018       49.8142273737      -14.8146150898  MEMB      321             0.0000000000
     37724       321  POPC      H4R            33.1262274319       49.3062795568      -14.7388124818  MEMB      321             0.0000000000
     37725       321  POPC      H4S            33.9413759125       50.8737347870      -15.1024646207  MEMB      321             0.0000000000
     37726       321  POPC      C25            34.7728268577       49.7692668004      -13.4133444519  MEMB      321             0.0000000000
     37727       321  POPC      H5R            35.5250902089       50.5865615187      -13.4345579262  MEMB      321             0.0000000000
     37728       321  POPC      H5S            35.3629563429       48.8421473391      -13.2505024169  MEMB      321             0.0000000000
     37729       321  POPC      C26            33.7957129948       50.1672463349      -12.3308051155  MEMB      321             0.0000000000
     37730       321  POPC      H6R            32.8974599932       49.5386833678      -12.5107247020  MEMB      321             0.0000000000
     37731       321  POPC      H6S            33.6298745889       51.2578895706      -12.4623926953  MEMB      321             0.0000000000
     37732       321  POPC      C27            34.3153418977       49.7932746428      -10.9384027276  MEMB      321             0.0000000000
     37733       321  POPC      H7R            33.5318509129       50.0662477619      -10.1995187024  MEMB      321             0.0000000000
     37734       321  POPC      H7S            35.3049398495       50.2772060443      -10.7940849666  MEMB      321             0.0000000000
     37735       321  POPC      C28            34.6311856391       48.2969182128      -10.6169402418  MEMB      321             0.0000000000
     37736       321  POPC      H8R            34.9516969326       48.3872888377       -9.5570226433  MEMB      321             0.0000000000
     37737       321  POPC      H8S            35.5607577514       48.0215924454      -11.1595381564  MEMB      321             0.0000000000
     37738       321  POPC      C29            33.5178895305       47.3531663378      -10.8392688428  MEMB      321             0.0000000000
     37739       321  POPC      H91            33.3251009713       47.3003576372      -11.9209544526  MEMB      321             0.0000000000
     37740       321  POPC      C210           32.6820816022       46.7599237637       -9.9252119065  MEMB      321             0.0000000000
     37741       321  POPC      H101           31.7782758545       46.2569120057      -10.2995299907  MEMB      321             0.0000000000
     37742       321  POPC      C211           32.8127973412       47.0433766502       -8.3960517778  MEMB      321             0.0000000000
     37743       321  POPC      H11R           32.1744934260       47.8155024992       -7.9157286078  MEMB      321             0.0000000000
     37744       321  POPC      H11S           33.8909034083       47.2889231618       -8.2878135634  MEMB      321             0.0000000000
     37745       321  POPC      C212           32.5852167410       45.7635065143       -7.6725790684  MEMB      321             0.0000000000
     37746       321  POPC      H12R           33.4769394432       45.1019162387       -7.6344986266  MEMB      321             0.0000000000
     37747       321  POPC      H12S           31.6786240223       45.2638022985       -8.0759470197  MEMB      321             0.0000000000
     37748       321  POPC      C213           32.3201393685       46.0027325088       -6.0803687311  MEMB      321             0.0000000000
     37749       321  POPC      H13R           31.2576100165       46.3259216783       -6.0503504738  MEMB      321             0.0000000000
     37750       321  POPC      H13S           32.9613833335       46.8611944230       -5.7868200198  MEMB      321             0.0000000000
     37751       321  POPC      C214           32.4862639888       44.7934265443       -5.1195288092  MEMB      321             0.0000000000
     37752       321  POPC      H14R           33.5032893455       44.3689450129       -5.2602256077  MEMB      321             0.0000000000
     37753       321  POPC      H14S           31.9365249821       43.8962327835       -5.4761115067  MEMB      321             0.0000000000
     37754       321  POPC      C215           32.2382381075       45.2128797296       -3.6452336816  MEMB      321             0.0000000000
     37755       321  POPC      H15R           31.2652417299       45.7279083866       -3.4957539134  MEMB      321             0.0000000000
     37756       321  POPC      H15S           33.0914462235       45.9024204957       -3.4694775355  MEMB      321             0.0000000000
     37757       321  POPC      C216           32.3359000055       44.0061023737       -2.7257232872  MEMB      321             0.0000000000
     37758       321  POPC      H16R           33.3465641070       43.6210362933       -2.4715515752  MEMB      321             0.0000000000
     37759       321  POPC      H16S           31.7057403912       43.1660637780       -3.0884286388  MEMB      321             0.0000000000
     37760       321  POPC      C217           31.7876807691       44.4780749863       -1.3402404915  MEMB      321             0.0000000000
     37761       321  POPC      H17R           31.6104339885       43.5486959344       -0.7578656372  MEMB      321             0.0000000000
     37762       321  POPC      H17S           30.7699257402       44.8671931941       -1.5572257438  MEMB      321             0.0000000000
     37763       321  POPC      C218           32.5386613589       45.5675571409       -0.5292434252  MEMB      321             0.0000000000
     37764       321  POPC      H18R           33.5903887051       45.2461894903       -0.3714047594  MEMB      321             0.0000000000
     37765       321  POPC      H18S           32.0333810631       45.7615978465        0.4409935006  MEMB      321             0.0000000000
     37766       321  POPC      H18T           32.5002913540       46.5323025642       -1.0788935497  MEMB      321             0.0000000000
     37767       321  POPC      C33            33.6850765972       45.8478298062      -14.2861376730  MEMB      321             0.0000000000
     37768       321  POPC      H3X            33.8434370560       46.8470925982      -13.8270988601  MEMB      321             0.0000000000
     37769       321  POPC      H3Y            34.3444445360       45.8198674210      -15.1798789593  MEMB      321             0.0000000000
     37770       321  POPC      C34            34.5139026041       44.8090594543      -13.4039103828  MEMB      321             0.0000000000
     37771       321  POPC      H4X            34.5540516994       43.7961363149      -13.8585483600  MEMB      321             0.0000000000
     37772       321  POPC      H4Y            33.8566293135       44.8087732316      -12.5081912136  MEMB      321             0.0000000000
     37773       321  POPC      C35            35.9500417039       45.2004035020      -13.0878983942  MEMB      321             0.0000000000
     37774       321  POPC      H5X            36.0691115291       46.0708805029      -12.4078888336  MEMB      321             0.0000000000
     37775       321  POPC      H5Y            36.5204972923       45.2735981264      -14.0384477105  MEMB      321             0.0000000000
     37776       321  POPC      C36            36.8495256940       44.0881299529      -12.4347041972  MEMB      321             0.0000000000
     37777       321  POPC      H6X            37.8724146449       44.4104925396      -12.7247065441  MEMB      321             0.0000000000
     37778       321  POPC      H6Y            36.7440954866       43.0969397924      -12.9253646659  MEMB      321             0.0000000000
     37779       321  POPC      C37            36.6754430432       43.9236333822      -10.9342176549  MEMB      321             0.0000000000
     37780       321  POPC      H7X            35.6223347010       43.5800612122      -10.8491182642  MEMB      321             0.0000000000
     37781       321  POPC      H7Y            36.9209344329       44.8730284908      -10.4120065525  MEMB      321             0.0000000000
     37782       321  POPC      C38            37.5527937267       42.7840711281      -10.3796941858  MEMB      321             0.0000000000
     37783       321  POPC      H8X            38.6188391549       43.0967046230      -10.3910287360  MEMB      321             0.0000000000
     37784       321  POPC      H8Y            37.3053761654       41.7920280941      -10.8143854610  MEMB      321             0.0000000000
     37785       321  POPC      C39            37.2572218227       42.5470499338       -8.8801068340  MEMB      321             0.0000000000
     37786       321  POPC      H9X            37.8288957366       41.7069464825       -8.4309565061  MEMB      321             0.0000000000
     37787       321  POPC      H9Y            36.1955665689       42.2197345737       -8.8714985241  MEMB      321             0.0000000000
     37788       321  POPC      C310           37.3967043654       43.7774222337       -7.9281154191  MEMB      321             0.0000000000
     37789       321  POPC      H10X           36.4971931383       44.3715328813       -8.1968777947  MEMB      321             0.0000000000
     37790       321  POPC      H10Y           38.3070435041       44.3661337255       -8.1710608246  MEMB      321             0.0000000000
     37791       321  POPC      C311           37.2866792831       43.3446319638       -6.4238835767  MEMB      321             0.0000000000
     37792       321  POPC      H11X           37.9450749601       42.4579164928       -6.3031726368  MEMB      321             0.0000000000
     37793       321  POPC      H11Y           36.2969285892       42.8781078157       -6.2313480006  MEMB      321             0.0000000000
     37794       321  POPC      C312           37.4709590566       44.5509377363       -5.4958590821  MEMB      321             0.0000000000
     37795       321  POPC      H12X           38.3952996108       45.0905268012       -5.7937840318  MEMB      321             0.0000000000
     37796       321  POPC      H12Y           37.7003249871       44.3031338029       -4.4374141855  MEMB      321             0.0000000000
     37797       321  POPC      C313           36.3768722740       45.6210744948       -5.6846279172  MEMB      321             0.0000000000
     37798       321  POPC      H13X           35.4405791298       45.0811580864       -5.4273992144  MEMB      321             0.0000000000
     37799       321  POPC      H13Y           36.2616246573       46.0692297021       -6.6946752025  MEMB      321             0.0000000000
     37800       321  POPC      C314           36.5040493792       46.8484949590       -4.8254303841  MEMB      321             0.0000000000
     37801       321  POPC      H14X           35.8610665989       47.6773316800       -5.1913865496  MEMB      321             0.0000000000
     37802       321  POPC      H14Y           37.5313220664       47.2045132394       -5.0540849321  MEMB      321             0.0000000000
     37803       321  POPC      C315           36.3417932724       46.6727377927       -3.2808934351  MEMB      321             0.0000000000
     37804       321  POPC      H15X           35.7064124745       45.7963838912       -3.0306615082  MEMB      321             0.0000000000
     37805       321  POPC      H15Y           35.8827480756       47.6173616319       -2.9185620036  MEMB      321             0.0000000000
     37806       321  POPC      C316           37.5379351642       46.4418075936       -2.4272961239  MEMB      321             0.0000000000
     37807       321  POPC      H16X           38.1622574493       45.5642537056       -2.7001370639  MEMB      321             0.0000000000
     37808       321  POPC      H16Y           37.1851884594       46.3877905618       -1.3751675038  MEMB      321             0.0000000000
     37809       321  POPC      H16Z           38.1906494438       47.3215274815       -2.6127092156  MEMB      321             0.0000000000
     37810       322  POPC      N              22.7553634721       53.1295492613      -20.8700685901  MEMB      322             0.0000000000
     37811       322  POPC      C12            23.3995630719       54.1425975605      -19.9842531723  MEMB      322             0.0000000000
     37812       322  POPC      H12A           24.2159172455       54.5989369178      -20.5243645451  MEMB      322             0.0000000000
     37813       322  POPC      H12B           23.7874048408       53.6152121968      -19.1252750492  MEMB      322             0.0000000000
     37814       322  POPC      C13            21.9540152881       53.7753099549      -22.0168277382  MEMB      322             0.0000000000
     37815       322  POPC      H13A           21.2256828779       54.4137951406      -21.5390531023  MEMB      322             0.0000000000
     37816       322  POPC      H13B           22.5772464378       54.3814049968      -22.6576331020  MEMB      322             0.0000000000
     37817       322  POPC      H13C           21.3621838269       53.0506014691      -22.5562097496  MEMB      322             0.0000000000
     37818       322  POPC      C14            23.8433134850       52.2804873083      -21.4035509242  MEMB      322             0.0000000000
     37819       322  POPC      H14A           24.5743550769       52.9625585181      -21.8119097911  MEMB      322             0.0000000000
     37820       322  POPC      H14B           24.2464151943       51.6310713649      -20.6405515748  MEMB      322             0.0000000000
     37821       322  POPC      H14C           23.3558593426       51.5701160588      -22.0548275424  MEMB      322             0.0000000000
     37822       322  POPC      C15            21.8695071178       52.2281773462      -20.0116017979  MEMB      322             0.0000000000
     37823       322  POPC      H15A           22.4179467741       51.8656002209      -19.1547752144  MEMB      322             0.0000000000
     37824       322  POPC      H15B           21.4571159582       51.4653931216      -20.6554135133  MEMB      322             0.0000000000
     37825       322  POPC      H15C           21.0537027210       52.8215541803      -19.6258984291  MEMB      322             0.0000000000
     37826       322  POPC      C11            22.5105185424       55.3560271073      -19.4972135706  MEMB      322             0.0000000000
     37827       322  POPC      H11A           22.0237451447       55.9165197509      -20.3237851386  MEMB      322             0.0000000000
     37828       322  POPC      H11B           23.1057260174       56.1743298768      -19.0384873200  MEMB      322             0.0000000000
     37829       322  POPC      P              21.8953415524       54.6205075337      -17.0288418884  MEMB      322             0.0000000000
     37830       322  POPC      O13            23.3439046015       54.6982794977      -16.7407824155  MEMB      322             0.0000000000
     37831       322  POPC      O14            21.2247970247       53.4106807344      -16.5249284168  MEMB      322             0.0000000000
     37832       322  POPC      O12            21.5468457868       54.8105148030      -18.5771389665  MEMB      322             0.0000000000
     37833       322  POPC      O11            21.1692685657       55.8718420538      -16.3447924828  MEMB      322             0.0000000000
     37834       322  POPC      C1             20.7616218551       56.9909443420      -17.0989831889  MEMB      322             0.0000000000
     37835       322  POPC      HA             20.1284851133       56.6565378603      -17.9484717770  MEMB      322             0.0000000000
     37836       322  POPC      HB             21.6676678211       57.5152188619      -17.4711901885  MEMB      322             0.0000000000
     37837       322  POPC      C2             20.1122947656       58.1212471074      -16.2236274816  MEMB      322             0.0000000000
     37838       322  POPC      HS             20.2162761911       59.1079232869      -16.7236061668  MEMB      322             0.0000000000
     37839       322  POPC      O21            20.7226759960       58.1659022526      -14.9439003157  MEMB      322             0.0000000000
     37840       322  POPC      C21            21.9478935803       58.6616825716      -14.9792045237  MEMB      322             0.0000000000
     37841       322  POPC      O22            22.6228130421       58.9258233407      -15.9385484027  MEMB      322             0.0000000000
     37842       322  POPC      C22            22.3902317024       58.7754138067      -13.5329846548  MEMB      322             0.0000000000
     37843       322  POPC      H2R            21.5404072096       59.1184609555      -12.9049418709  MEMB      322             0.0000000000
     37844       322  POPC      H2S            23.2376636394       59.4892202655      -13.4513725509  MEMB      322             0.0000000000
     37845       322  POPC      C3             18.6035308135       57.9351368022      -15.9816483507  MEMB      322             0.0000000000
     37846       322  POPC      HX             18.1912162228       57.9941363903      -17.0116178198  MEMB      322             0.0000000000
     37847       322  POPC      HY             18.0808167082       58.8096666801      -15.5386034655  MEMB      322             0.0000000000
     37848       322  POPC      O31            18.3493421671       56.6260585187      -15.3633034085  MEMB      322             0.0000000000
     37849       322  POPC      C31            18.0538286459       56.7580146092      -14.0549633726  MEMB      322             0.0000000000
     37850       322  POPC      O32            17.9357500304       57.8384639561      -13.4554375664  MEMB      322             0.0000000000
     37851       322  POPC      C32            17.9032942702       55.4104518376      -13.3623677960  MEMB      322             0.0000000000
     37852       322  POPC      H2X            18.1506572855       54.6084848829      -14.0903662170  MEMB      322             0.0000000000
     37853       322  POPC      H2Y            16.8321746793       55.3056668397      -13.0866069596  MEMB      322             0.0000000000
     37854       322  POPC      C23            23.0071440049       57.4750343863      -12.9842809565  MEMB      322             0.0000000000
     37855       322  POPC      H3R            24.0238766220       57.2970749200      -13.3952628629  MEMB      322             0.0000000000
     37856       322  POPC      H3S            22.4123558711       56.5687391096      -13.2275439186  MEMB      322             0.0000000000
     37857       322  POPC      C24            23.0457717573       57.5964398557      -11.4823646786  MEMB      322             0.0000000000
     37858       322  POPC      H4R            22.1431746738       58.0837206902      -11.0555194260  MEMB      322             0.0000000000
     37859       322  POPC      H4S            23.7964667131       58.3232771987      -11.1048919797  MEMB      322             0.0000000000
     37860       322  POPC      C25            23.2692984029       56.2876595303      -10.7674878792  MEMB      322             0.0000000000
     37861       322  POPC      H5R            22.8689202321       55.4306099611      -11.3501406286  MEMB      322             0.0000000000
     37862       322  POPC      H5S            22.6830158387       56.3293904985       -9.8246985368  MEMB      322             0.0000000000
     37863       322  POPC      C26            24.6279570072       55.9792252971      -10.3553417541  MEMB      322             0.0000000000
     37864       322  POPC      H6R            25.2422467639       56.2731665879      -11.2331612839  MEMB      322             0.0000000000
     37865       322  POPC      H6S            24.8590274554       54.9088133796      -10.1678703216  MEMB      322             0.0000000000
     37866       322  POPC      C27            25.1851331655       56.8827335508       -9.2134401920  MEMB      322             0.0000000000
     37867       322  POPC      H7R            24.9495300943       57.9470928971       -9.4278031036  MEMB      322             0.0000000000
     37868       322  POPC      H7S            26.2921105523       56.9719947527       -9.1825395711  MEMB      322             0.0000000000
     37869       322  POPC      C28            24.6814993744       56.4513731082       -7.8227586677  MEMB      322             0.0000000000
     37870       322  POPC      H8R            25.0948779772       55.4521362327       -7.5678764232  MEMB      322             0.0000000000
     37871       322  POPC      H8S            23.5828443171       56.3806799262       -7.9720252665  MEMB      322             0.0000000000
     37872       322  POPC      C29            25.0148465123       57.3071523534       -6.6423578386  MEMB      322             0.0000000000
     37873       322  POPC      H91            25.9801987629       57.1453990061       -6.1404308906  MEMB      322             0.0000000000
     37874       322  POPC      C210           24.1731358854       58.2676940281       -6.2539720964  MEMB      322             0.0000000000
     37875       322  POPC      H101           24.4451908898       59.0068797708       -5.4861236536  MEMB      322             0.0000000000
     37876       322  POPC      C211           22.8988223683       58.6408738721       -6.9056667683  MEMB      322             0.0000000000
     37877       322  POPC      H11R           22.9036094766       58.3089773079       -7.9659224984  MEMB      322             0.0000000000
     37878       322  POPC      H11S           22.7286272470       59.7067240169       -7.1689499115  MEMB      322             0.0000000000
     37879       322  POPC      C212           21.6627906817       58.1381175262       -6.0798967681  MEMB      322             0.0000000000
     37880       322  POPC      H12R           21.6614585561       57.0298857861       -6.0015271542  MEMB      322             0.0000000000
     37881       322  POPC      H12S           20.8376441044       58.5152149601       -6.7211858348  MEMB      322             0.0000000000
     37882       322  POPC      C213           21.4747859048       58.8135112684       -4.7223290317  MEMB      322             0.0000000000
     37883       322  POPC      H13R           21.0649741418       59.8204979658       -4.9511366121  MEMB      322             0.0000000000
     37884       322  POPC      H13S           22.4508714564       58.8383006807       -4.1922693797  MEMB      322             0.0000000000
     37885       322  POPC      C214           20.3654667656       58.1614587739       -3.8309703290  MEMB      322             0.0000000000
     37886       322  POPC      H14R           20.3738612102       58.6679087500       -2.8421536447  MEMB      322             0.0000000000
     37887       322  POPC      H14S           20.7068996549       57.1677863096       -3.4699168246  MEMB      322             0.0000000000
     37888       322  POPC      C215           18.9191249768       57.9071470883       -4.4299982681  MEMB      322             0.0000000000
     37889       322  POPC      H15R           18.3378690066       57.3143264416       -3.6917394420  MEMB      322             0.0000000000
     37890       322  POPC      H15S           19.1531874575       57.3321663955       -5.3513741809  MEMB      322             0.0000000000
     37891       322  POPC      C216           18.2534202728       59.2886415546       -4.8103277670  MEMB      322             0.0000000000
     37892       322  POPC      H16R           17.4099182026       59.1771365618       -5.5247451228  MEMB      322             0.0000000000
     37893       322  POPC      H16S           18.9706472440       59.9567913662       -5.3332829520  MEMB      322             0.0000000000
     37894       322  POPC      C217           17.7478831543       60.0789746641       -3.6583921868  MEMB      322             0.0000000000
     37895       322  POPC      H17R           17.4497025668       61.0342585973       -4.1409284967  MEMB      322             0.0000000000
     37896       322  POPC      H17S           18.6241405526       60.3454616590       -3.0295201334  MEMB      322             0.0000000000
     37897       322  POPC      C218           16.6618012599       59.3276318131       -2.8318039563  MEMB      322             0.0000000000
     37898       322  POPC      H18R           16.0268324357       58.7336633326       -3.5234227184  MEMB      322             0.0000000000
     37899       322  POPC      H18S           15.9853954357       59.8819760023       -2.1466022404  MEMB      322             0.0000000000
     37900       322  POPC      H18T           17.1697176398       58.5252912976       -2.2550956642  MEMB      322             0.0000000000
     37901       322  POPC      C33            18.6952480173       55.4068924418      -12.0766095649  MEMB      322             0.0000000000
     37902       322  POPC      H3X            18.1749782036       55.8957032081      -11.2253132581  MEMB      322             0.0000000000
     37903       322  POPC      H3Y            19.6178036671       56.0014565574      -12.2489623124  MEMB      322             0.0000000000
     37904       322  POPC      C34            19.0840281713       53.9174610913      -11.6956943592  MEMB      322             0.0000000000
     37905       322  POPC      H4X            19.9312051180       53.9548671849      -10.9779108218  MEMB      322             0.0000000000
     37906       322  POPC      H4Y            19.4271933192       53.3850334110      -12.6084259210  MEMB      322             0.0000000000
     37907       322  POPC      C35            17.9010420063       53.1342196006      -11.1854106734  MEMB      322             0.0000000000
     37908       322  POPC      H5X            16.9410310761       53.1809849018      -11.7426474905  MEMB      322             0.0000000000
     37909       322  POPC      H5Y            17.5971086318       53.4249514754      -10.1571013322  MEMB      322             0.0000000000
     37910       322  POPC      C36            18.2674005766       51.6170505298      -11.1992894311  MEMB      322             0.0000000000
     37911       322  POPC      H6X            18.0560695441       51.1815475952      -12.1992880709  MEMB      322             0.0000000000
     37912       322  POPC      H6Y            17.4589498606       51.1835234810      -10.5725655187  MEMB      322             0.0000000000
     37913       322  POPC      C37            19.7207777019       51.3896954908      -10.7821798768  MEMB      322             0.0000000000
     37914       322  POPC      H7X            20.4603371994       51.6546617294      -11.5677787742  MEMB      322             0.0000000000
     37915       322  POPC      H7Y            19.7611046627       50.2854826482      -10.6663836796  MEMB      322             0.0000000000
     37916       322  POPC      C38            20.0903843823       51.8748390977       -9.3553663195  MEMB      322             0.0000000000
     37917       322  POPC      H8X            19.5306999757       51.2130531744       -8.6603021905  MEMB      322             0.0000000000
     37918       322  POPC      H8Y            19.8431897318       52.9449622651       -9.1878796803  MEMB      322             0.0000000000
     37919       322  POPC      C39            21.5172600939       51.7012474675       -8.8690539846  MEMB      322             0.0000000000
     37920       322  POPC      H9X            22.2021400340       51.7700645392       -9.7411345626  MEMB      322             0.0000000000
     37921       322  POPC      H9Y            21.6500832046       50.6410344968       -8.5647052389  MEMB      322             0.0000000000
     37922       322  POPC      C310           22.0054727884       52.7149983043       -7.8654830624  MEMB      322             0.0000000000
     37923       322  POPC      H10X           22.0214332921       53.7703255209       -8.2123989833  MEMB      322             0.0000000000
     37924       322  POPC      H10Y           23.0789688698       52.4589530278       -7.7375437949  MEMB      322             0.0000000000
     37925       322  POPC      C311           21.2827770526       52.6224476125       -6.5187943834  MEMB      322             0.0000000000
     37926       322  POPC      H11X           20.9619017643       51.5793107502       -6.3108879672  MEMB      322             0.0000000000
     37927       322  POPC      H11Y           20.3697505260       53.2182385385       -6.7326558213  MEMB      322             0.0000000000
     37928       322  POPC      C312           22.0434005715       53.1218613358       -5.3313924771  MEMB      322             0.0000000000
     37929       322  POPC      H12X           22.6189345846       54.0595860393       -5.4855144633  MEMB      322             0.0000000000
     37930       322  POPC      H12Y           22.9213683649       52.5332059068       -4.9893706214  MEMB      322             0.0000000000
     37931       322  POPC      C313           21.1075909137       53.2760142842       -4.1317085520  MEMB      322             0.0000000000
     37932       322  POPC      H13X           20.5290566997       52.3277250411       -4.1125596945  MEMB      322             0.0000000000
     37933       322  POPC      H13Y           20.2659139606       53.9260446256       -4.4532077171  MEMB      322             0.0000000000
     37934       322  POPC      C314           21.8128952763       53.6205365704       -2.8706727007  MEMB      322             0.0000000000
     37935       322  POPC      H14X           22.2803292956       52.7072527886       -2.4443640384  MEMB      322             0.0000000000
     37936       322  POPC      H14Y           21.0463314659       54.0363928714       -2.1823664448  MEMB      322             0.0000000000
     37937       322  POPC      C315           22.9100184129       54.6590564186       -2.9848419327  MEMB      322             0.0000000000
     37938       322  POPC      H15X           22.5581814151       55.5312380008       -3.5763071809  MEMB      322             0.0000000000
     37939       322  POPC      H15Y           23.8347667661       54.2479421201       -3.4432587122  MEMB      322             0.0000000000
     37940       322  POPC      C316           23.2755656945       55.2066634489       -1.6010582644  MEMB      322             0.0000000000
     37941       322  POPC      H16X           22.4239454996       55.8619333185       -1.3187738716  MEMB      322             0.0000000000
     37942       322  POPC      H16Y           24.1925396922       55.8116762470       -1.4354087428  MEMB      322             0.0000000000
     37943       322  POPC      H16Z           23.3035716308       54.4390056890       -0.7984135906  MEMB      322             0.0000000000
     37944       323  POPC      N             -47.8210534905       31.3595390044      -20.9718017796  MEMB      323             0.0000000000
     37945       323  POPC      C12           -47.2987865942       32.7128253149      -20.6527091555  MEMB      323             0.0000000000
     37946       323  POPC      H12A          -48.1131909454       33.3135875908      -20.2755748151  MEMB      323             0.0000000000
     37947       323  POPC      H12B          -46.8175377979       33.1219071511      -21.5287524567  MEMB      323             0.0000000000
     37948       323  POPC      C13           -46.7651475272       30.4001606079      -21.0493775267  MEMB      323             0.0000000000
     37949       323  POPC      H13A          -46.1454652087       30.6927725143      -21.8841063765  MEMB      323             0.0000000000
     37950       323  POPC      H13B          -46.1263298855       30.3513066787      -20.1799377789  MEMB      323             0.0000000000
     37951       323  POPC      H13C          -47.2246739344       29.4407594971      -21.2358842269  MEMB      323             0.0000000000
     37952       323  POPC      C14           -48.8112357533       30.9577024422      -19.8973416271  MEMB      323             0.0000000000
     37953       323  POPC      H14A          -49.5835831980       31.7076822344      -19.8112624438  MEMB      323             0.0000000000
     37954       323  POPC      H14B          -49.2386152364       29.9985570268      -20.1499023531  MEMB      323             0.0000000000
     37955       323  POPC      H14C          -48.3368376382       30.8964598535      -18.9290462819  MEMB      323             0.0000000000
     37956       323  POPC      C15           -48.4710973840       31.3316087874      -22.3836345142  MEMB      323             0.0000000000
     37957       323  POPC      H15A          -49.3365453435       31.9775542969      -22.3960568229  MEMB      323             0.0000000000
     37958       323  POPC      H15B          -48.9159788276       30.3548407572      -22.5036539257  MEMB      323             0.0000000000
     37959       323  POPC      H15C          -47.7371657874       31.5593624105      -23.1424973640  MEMB      323             0.0000000000
     37960       323  POPC      C11           -46.2783423897       32.9308232424      -19.4542802497  MEMB      323             0.0000000000
     37961       323  POPC      H11A          -45.9475807927       33.9906489157      -19.4953538408  MEMB      323             0.0000000000
     37962       323  POPC      H11B          -45.3496293200       32.3265943730      -19.5362589145  MEMB      323             0.0000000000
     37963       323  POPC      P             -46.1465088933       32.5108863021      -16.8550366414  MEMB      323             0.0000000000
     37964       323  POPC      O13           -47.0867058837       32.7280552435      -15.7282525382  MEMB      323             0.0000000000
     37965       323  POPC      O14           -44.9259087091       33.3290896926      -16.8830563042  MEMB      323             0.0000000000
     37966       323  POPC      O12           -46.8940588041       32.6768232996      -18.2503416410  MEMB      323             0.0000000000
     37967       323  POPC      O11           -45.8016866111       31.0497546705      -16.8741680248  MEMB      323             0.0000000000
     37968       323  POPC      C1            -46.7071596295       29.9669913928      -17.0895703961  MEMB      323             0.0000000000
     37969       323  POPC      HA            -46.6265565427       29.4347766407      -18.0614611292  MEMB      323             0.0000000000
     37970       323  POPC      HB            -47.7172474138       30.4258942399      -17.0308174550  MEMB      323             0.0000000000
     37971       323  POPC      C2            -46.6160931958       28.9789035023      -15.9419176591  MEMB      323             0.0000000000
     37972       323  POPC      HS            -47.2976065345       28.1756745114      -16.2950235023  MEMB      323             0.0000000000
     37973       323  POPC      O21           -46.8895911575       29.6426286115      -14.7083819474  MEMB      323             0.0000000000
     37974       323  POPC      C21           -48.1287117674       29.6299936083      -14.2575764403  MEMB      323             0.0000000000
     37975       323  POPC      O22           -49.0938392464       29.1862896637      -14.8650555710  MEMB      323             0.0000000000
     37976       323  POPC      C22           -48.3894084369       30.3782888744      -12.9382138786  MEMB      323             0.0000000000
     37977       323  POPC      H2R           -49.4958330917       30.4730252012      -12.9039967011  MEMB      323             0.0000000000
     37978       323  POPC      H2S           -47.9663649373       31.4054036636      -12.9184571041  MEMB      323             0.0000000000
     37979       323  POPC      C3            -45.2294979715       28.2294080684      -15.9053113876  MEMB      323             0.0000000000
     37980       323  POPC      HX            -45.0470951740       27.8712844891      -16.9410709979  MEMB      323             0.0000000000
     37981       323  POPC      HY            -45.2278967326       27.3409878587      -15.2382070942  MEMB      323             0.0000000000
     37982       323  POPC      O31           -44.2680104356       29.2381612945      -15.5422854860  MEMB      323             0.0000000000
     37983       323  POPC      C31           -43.4993024043       28.9407748953      -14.3581466991  MEMB      323             0.0000000000
     37984       323  POPC      O32           -43.7909889132       28.0847483066      -13.5929713175  MEMB      323             0.0000000000
     37985       323  POPC      C32           -42.3233828567       29.8607798542      -14.3140708769  MEMB      323             0.0000000000
     37986       323  POPC      H2X           -42.2293450286       30.3948164952      -15.2837528197  MEMB      323             0.0000000000
     37987       323  POPC      H2Y           -41.3624180452       29.3180635450      -14.1862960276  MEMB      323             0.0000000000
     37988       323  POPC      C23           -47.9358857608       29.5598949387      -11.6292481588  MEMB      323             0.0000000000
     37989       323  POPC      H3R           -46.8603982275       29.2846027738      -11.6723985709  MEMB      323             0.0000000000
     37990       323  POPC      H3S           -48.4577623935       28.5821966571      -11.7071710314  MEMB      323             0.0000000000
     37991       323  POPC      C24           -48.1724937064       30.0959881057      -10.2831646319  MEMB      323             0.0000000000
     37992       323  POPC      H4R           -49.2680669071       30.1910229440      -10.1250225404  MEMB      323             0.0000000000
     37993       323  POPC      H4S           -47.7280088089       31.1140133791      -10.3026200662  MEMB      323             0.0000000000
     37994       323  POPC      C25           -47.5287559676       29.4661299493       -9.0613607794  MEMB      323             0.0000000000
     37995       323  POPC      H5R           -47.9604000062       28.4647022982       -8.8488817501  MEMB      323             0.0000000000
     37996       323  POPC      H5S           -47.8415851874       30.1665305409       -8.2576825131  MEMB      323             0.0000000000
     37997       323  POPC      C26           -45.9795687606       29.4637419466       -9.0889176864  MEMB      323             0.0000000000
     37998       323  POPC      H6R           -45.6825466158       30.4301736102       -9.5494699361  MEMB      323             0.0000000000
     37999       323  POPC      H6S           -45.6335563969       28.5886356527       -9.6794979742  MEMB      323             0.0000000000
     38000       323  POPC      C27           -45.2335595203       29.5487872042       -7.7734769742  MEMB      323             0.0000000000
     38001       323  POPC      H7R           -45.4949447066       30.5220159611       -7.3056897271  MEMB      323             0.0000000000
     38002       323  POPC      H7S           -44.1344632996       29.4931916301       -7.9258499405  MEMB      323             0.0000000000
     38003       323  POPC      C28           -45.7385432386       28.6231371211       -6.6582136775  MEMB      323             0.0000000000
     38004       323  POPC      H8R           -46.7965305675       28.8769983146       -6.4334063473  MEMB      323             0.0000000000
     38005       323  POPC      H8S           -45.1995024255       28.8901444374       -5.7241558305  MEMB      323             0.0000000000
     38006       323  POPC      C29           -45.6022135883       27.1077248984       -7.0169228953  MEMB      323             0.0000000000
     38007       323  POPC      H91           -46.5289718229       26.5924287395       -7.3094794244  MEMB      323             0.0000000000
     38008       323  POPC      C210          -44.5733818099       26.3614090105       -6.6988712617  MEMB      323             0.0000000000
     38009       323  POPC      H101          -44.5952015703       25.2684810151       -6.8214794766  MEMB      323             0.0000000000
     38010       323  POPC      C211          -43.2976539073       26.9715324888       -5.9773057131  MEMB      323             0.0000000000
     38011       323  POPC      H11R          -42.9634808726       27.8978234457       -6.4917326125  MEMB      323             0.0000000000
     38012       323  POPC      H11S          -42.4794063638       26.2241007039       -6.0556512405  MEMB      323             0.0000000000
     38013       323  POPC      C212          -43.3136589613       27.3278013755       -4.5152398221  MEMB      323             0.0000000000
     38014       323  POPC      H12R          -43.9509530108       28.1877873299       -4.2175809504  MEMB      323             0.0000000000
     38015       323  POPC      H12S          -42.3324456087       27.4193440690       -4.0022477884  MEMB      323             0.0000000000
     38016       323  POPC      C213          -43.8933168303       26.2054610194       -3.6332616352  MEMB      323             0.0000000000
     38017       323  POPC      H13R          -42.9644380144       25.5976616791       -3.5875962416  MEMB      323             0.0000000000
     38018       323  POPC      H13S          -44.5997192018       25.5591118013       -4.1967758226  MEMB      323             0.0000000000
     38019       323  POPC      C214          -44.5750015296       26.6006139194       -2.3283400223  MEMB      323             0.0000000000
     38020       323  POPC      H14R          -44.9000704372       25.7321369934       -1.7164577969  MEMB      323             0.0000000000
     38021       323  POPC      H14S          -45.3587162334       27.3665790501       -2.5111216157  MEMB      323             0.0000000000
     38022       323  POPC      C215          -43.6422298788       27.4588419828       -1.3965097187  MEMB      323             0.0000000000
     38023       323  POPC      H15R          -43.2749169706       28.3480538959       -1.9521219892  MEMB      323             0.0000000000
     38024       323  POPC      H15S          -42.7029558142       26.9170128298       -1.1546287003  MEMB      323             0.0000000000
     38025       323  POPC      C216          -44.2496978975       27.9420985527       -0.0872313696  MEMB      323             0.0000000000
     38026       323  POPC      H16R          -44.7241586231       27.0364276455        0.3474730052  MEMB      323             0.0000000000
     38027       323  POPC      H16S          -45.0752240415       28.6637417323       -0.2662816096  MEMB      323             0.0000000000
     38028       323  POPC      C217          -43.2532228981       28.4707681823        0.9247060168  MEMB      323             0.0000000000
     38029       323  POPC      H17R          -42.4170265530       27.7406139718        0.8803021453  MEMB      323             0.0000000000
     38030       323  POPC      H17S          -43.7128348980       28.4184790244        1.9348266247  MEMB      323             0.0000000000
     38031       323  POPC      C218          -42.6496251683       29.8802496335        0.5559937812  MEMB      323             0.0000000000
     38032       323  POPC      H18R          -43.1734402989       30.7955095978        0.9056203570  MEMB      323             0.0000000000
     38033       323  POPC      H18S          -42.5959512148       29.8937828894       -0.5536253090  MEMB      323             0.0000000000
     38034       323  POPC      H18T          -41.5930829653       29.9407039463        0.8942032525  MEMB      323             0.0000000000
     38035       323  POPC      C33           -42.3360820784       30.8877219254      -13.1406589426  MEMB      323             0.0000000000
     38036       323  POPC      H3X           -41.3898653968       31.4620850020      -13.0452548934  MEMB      323             0.0000000000
     38037       323  POPC      H3Y           -42.3652226746       30.3855660555      -12.1500473029  MEMB      323             0.0000000000
     38038       323  POPC      C34           -43.4844364592       31.9086611709      -13.3157395324  MEMB      323             0.0000000000
     38039       323  POPC      H4X           -44.3624760679       31.2314062098      -13.3842461411  MEMB      323             0.0000000000
     38040       323  POPC      H4Y           -43.4133938835       32.5297274417      -14.2341893888  MEMB      323             0.0000000000
     38041       323  POPC      C35           -43.5591014512       32.7171715100      -12.0410437982  MEMB      323             0.0000000000
     38042       323  POPC      H5X           -42.5398427894       33.1278544433      -11.8774212526  MEMB      323             0.0000000000
     38043       323  POPC      H5Y           -43.6571497368       31.9933883756      -11.2038786910  MEMB      323             0.0000000000
     38044       323  POPC      C36           -44.7046332569       33.7419395437      -11.9912680033  MEMB      323             0.0000000000
     38045       323  POPC      H6X           -45.6548170814       33.2872334063      -12.3444170299  MEMB      323             0.0000000000
     38046       323  POPC      H6Y           -44.5430951768       34.7045845227      -12.5218727048  MEMB      323             0.0000000000
     38047       323  POPC      C37           -45.0854445591       34.2172522563      -10.5754001416  MEMB      323             0.0000000000
     38048       323  POPC      H7X           -44.3904198970       34.9911875616      -10.1851625109  MEMB      323             0.0000000000
     38049       323  POPC      H7Y           -45.1593133328       33.3122937733       -9.9351549770  MEMB      323             0.0000000000
     38050       323  POPC      C38           -46.4452437023       34.9471886348      -10.4645176940  MEMB      323             0.0000000000
     38051       323  POPC      H8X           -46.8375731054       34.8145071417      -11.4954372323  MEMB      323             0.0000000000
     38052       323  POPC      H8Y           -46.3131453361       36.0080951357      -10.1622794450  MEMB      323             0.0000000000
     38053       323  POPC      C39           -47.4707191163       34.2194342998       -9.5846531592  MEMB      323             0.0000000000
     38054       323  POPC      H9X           -47.7608775527       33.2017680588       -9.9230089037  MEMB      323             0.0000000000
     38055       323  POPC      H9Y           -48.3814645215       34.8525570673       -9.5212560807  MEMB      323             0.0000000000
     38056       323  POPC      C310          -46.9329489425       34.1714879417       -8.1803058854  MEMB      323             0.0000000000
     38057       323  POPC      H10X          -46.8003377673       35.1893333969       -7.7551871373  MEMB      323             0.0000000000
     38058       323  POPC      H10Y          -45.9711287946       33.6328316599       -8.0422037843  MEMB      323             0.0000000000
     38059       323  POPC      C311          -48.0023460976       33.4483954347       -7.3197022174  MEMB      323             0.0000000000
     38060       323  POPC      H11X          -48.0919253352       32.3842512090       -7.6261223932  MEMB      323             0.0000000000
     38061       323  POPC      H11Y          -49.0000253037       33.8566963240       -7.5884913079  MEMB      323             0.0000000000
     38062       323  POPC      C312          -47.7744978690       33.6095056943       -5.8602186740  MEMB      323             0.0000000000
     38063       323  POPC      H12X          -48.6579619403       33.1935409257       -5.3303261630  MEMB      323             0.0000000000
     38064       323  POPC      H12Y          -47.6442843566       34.7075655102       -5.7523747279  MEMB      323             0.0000000000
     38065       323  POPC      C313          -46.5333165379       32.7850804140       -5.4065592357  MEMB      323             0.0000000000
     38066       323  POPC      H13X          -45.6114664683       33.1513079983       -5.9069501349  MEMB      323             0.0000000000
     38067       323  POPC      H13Y          -46.6408799570       31.7237194650       -5.7168239093  MEMB      323             0.0000000000
     38068       323  POPC      C314          -46.2927614348       32.8356263203       -3.9113641379  MEMB      323             0.0000000000
     38069       323  POPC      H14X          -47.1816370742       32.4501360500       -3.3676566838  MEMB      323             0.0000000000
     38070       323  POPC      H14Y          -46.0000911170       33.8756844865       -3.6526290212  MEMB      323             0.0000000000
     38071       323  POPC      C315          -45.0561633133       32.0531942177       -3.4641214679  MEMB      323             0.0000000000
     38072       323  POPC      H15X          -44.1397912246       32.2774310148       -4.0508934553  MEMB      323             0.0000000000
     38073       323  POPC      H15Y          -45.2060454350       30.9919462276       -3.7567116273  MEMB      323             0.0000000000
     38074       323  POPC      C316          -44.9392120500       32.0532037876       -1.9954424542  MEMB      323             0.0000000000
     38075       323  POPC      H16X          -45.6080071739       31.3053123906       -1.5182711583  MEMB      323             0.0000000000
     38076       323  POPC      H16Y          -45.1866896972       33.0381678494       -1.5449736991  MEMB      323             0.0000000000
     38077       323  POPC      H16Z          -43.9043550325       31.7984511250       -1.6816051916  MEMB      323             0.0000000000
     38078       324  POPE      N              45.1949183839       34.0673878905      -21.4220570841  MEMB      324             0.0000000000
     38079       324  POPE      HN1            45.9248761604       34.7189441725      -21.7745287097  MEMB      324             0.0000000000
     38080       324  POPE      HN2            45.1642736817       33.1867399273      -21.9744338090  MEMB      324             0.0000000000
     38081       324  POPE      HN3            44.2996270317       34.5841738331      -21.5360119006  MEMB      324             0.0000000000
     38082       324  POPE      C12            45.5046795320       33.3345933021      -20.1676779608  MEMB      324             0.0000000000
     38083       324  POPE      H12A           46.3742667512       32.6705798351      -20.3606154237  MEMB      324             0.0000000000
     38084       324  POPE      H12B           44.6104643950       32.7480251494      -19.8666157321  MEMB      324             0.0000000000
     38085       324  POPE      C11            45.7208978520       34.3190519969      -18.9086710313  MEMB      324             0.0000000000
     38086       324  POPE      H11A           46.0541394546       33.6959307697      -18.0513548323  MEMB      324             0.0000000000
     38087       324  POPE      H11B           44.8049207131       34.8841797752      -18.6331034156  MEMB      324             0.0000000000
     38088       324  POPE      P              47.0530262180       36.5048382703      -18.3453727395  MEMB      324             0.0000000000
     38089       324  POPE      O13            46.1554690686       37.5918563125      -18.8637975881  MEMB      324             0.0000000000
     38090       324  POPE      O14            48.5004366404       36.7688501188      -18.1689309968  MEMB      324             0.0000000000
     38091       324  POPE      O11            46.5005093558       36.1165290355      -16.9127691914  MEMB      324             0.0000000000
     38092       324  POPE      O12            46.8571397419       35.1884266856      -19.2107233960  MEMB      324             0.0000000000
     38093       324  POPE      C1             45.3937616322       36.7488939126      -16.1663484963  MEMB      324             0.0000000000
     38094       324  POPE      HA             44.4025358236       36.5783156293      -16.6382547403  MEMB      324             0.0000000000
     38095       324  POPE      HB             45.5466272810       37.8493228857      -16.1693440099  MEMB      324             0.0000000000
     38096       324  POPE      C2             45.3634609373       36.2976108665      -14.6800989470  MEMB      324             0.0000000000
     38097       324  POPE      HS             45.3846642090       37.1604932339      -13.9805951186  MEMB      324             0.0000000000
     38098       324  POPE      O21            46.4412599991       35.3794927975      -14.3515167779  MEMB      324             0.0000000000
     38099       324  POPE      C21            47.6733649004       35.8606613005      -14.1551003365  MEMB      324             0.0000000000
     38100       324  POPE      O22            47.9655647403       37.0225255351      -14.1199858470  MEMB      324             0.0000000000
     38101       324  POPE      C22            48.6384849257       34.6739089716      -14.2108454721  MEMB      324             0.0000000000
     38102       324  POPE      H2R            49.1293688623       34.7309769666      -15.2058817576  MEMB      324             0.0000000000
     38103       324  POPE      H2S            48.1467744489       33.6826443833      -14.1111643871  MEMB      324             0.0000000000
     38104       324  POPE      C3             44.0342483684       35.5936214460      -14.3009929806  MEMB      324             0.0000000000
     38105       324  POPE      HX             43.7370726784       35.0556145396      -15.2264960991  MEMB      324             0.0000000000
     38106       324  POPE      HY             43.3090569016       36.3848113864      -14.0138738770  MEMB      324             0.0000000000
     38107       324  POPE      O31            44.1578277772       34.8418796218      -13.1224579524  MEMB      324             0.0000000000
     38108       324  POPE      C31            44.6789475190       33.6404824599      -13.1238883057  MEMB      324             0.0000000000
     38109       324  POPE      O32            44.9704934910       32.9892462778      -14.1364127237  MEMB      324             0.0000000000
     38110       324  POPE      C32            44.8919680579       33.1035848990      -11.7074832611  MEMB      324             0.0000000000
     38111       324  POPE      H2X            43.9155420484       33.0731438931      -11.1783457504  MEMB      324             0.0000000000
     38112       324  POPE      H2Y            45.5510175750       33.7657807551      -11.1062581429  MEMB      324             0.0000000000
     38113       324  POPE      C23            49.6406154946       34.7983820905      -13.0719409449  MEMB      324             0.0000000000
     38114       324  POPE      H3R            50.1347079475       35.7912133156      -13.1388722066  MEMB      324             0.0000000000
     38115       324  POPE      H3S            50.3433000960       33.9660532375      -13.2905370466  MEMB      324             0.0000000000
     38116       324  POPE      C24            49.0116380480       34.6138796252      -11.6840647215  MEMB      324             0.0000000000
     38117       324  POPE      H4R            48.4447599450       33.6592460630      -11.7246234375  MEMB      324             0.0000000000
     38118       324  POPE      H4S            48.3625811613       35.4636624258      -11.3825430542  MEMB      324             0.0000000000
     38119       324  POPE      C25            50.0209673886       34.4148282008      -10.5989757713  MEMB      324             0.0000000000
     38120       324  POPE      H5R            50.5214637489       35.3989921311      -10.4755033118  MEMB      324             0.0000000000
     38121       324  POPE      H5S            50.7688336309       33.6844223621      -10.9751728744  MEMB      324             0.0000000000
     38122       324  POPE      C26            49.5533844203       33.9918534423       -9.2339432158  MEMB      324             0.0000000000
     38123       324  POPE      H6R            50.4028236198       33.8991728284       -8.5238833642  MEMB      324             0.0000000000
     38124       324  POPE      H6S            49.1303473474       32.9664910529       -9.2971305819  MEMB      324             0.0000000000
     38125       324  POPE      C27            48.4891656711       34.8924080382       -8.5130203408  MEMB      324             0.0000000000
     38126       324  POPE      H7R            48.5936078405       35.9279631691       -8.9016566558  MEMB      324             0.0000000000
     38127       324  POPE      H7S            48.7190440812       35.0318126685       -7.4350392893  MEMB      324             0.0000000000
     38128       324  POPE      C28            47.0312597589       34.3977872385       -8.6324329168  MEMB      324             0.0000000000
     38129       324  POPE      H8R            46.9549163661       33.3032340546       -8.4579463534  MEMB      324             0.0000000000
     38130       324  POPE      H8S            46.8220202389       34.4874153402       -9.7198635166  MEMB      324             0.0000000000
     38131       324  POPE      C29            45.8959749200       35.1377091255       -7.9787113464  MEMB      324             0.0000000000
     38132       324  POPE      H91            45.0811170192       35.4431795800       -8.6515369722  MEMB      324             0.0000000000
     38133       324  POPE      C210           45.6974524766       35.2733445584       -6.6461297546  MEMB      324             0.0000000000
     38134       324  POPE      H101           44.8721872347       35.9542954594       -6.3907011526  MEMB      324             0.0000000000
     38135       324  POPE      C211           46.5459161593       34.7792599677       -5.5392399336  MEMB      324             0.0000000000
     38136       324  POPE      H11R           47.0247427032       33.8149721542       -5.8134574913  MEMB      324             0.0000000000
     38137       324  POPE      H11S           45.9054412176       34.3636785610       -4.7321434914  MEMB      324             0.0000000000
     38138       324  POPE      C212           47.5373154280       35.7263097199       -5.0237530096  MEMB      324             0.0000000000
     38139       324  POPE      H12R           46.9544966422       36.5527415306       -4.5636944531  MEMB      324             0.0000000000
     38140       324  POPE      H12S           48.1810180960       36.1528575873       -5.8225179266  MEMB      324             0.0000000000
     38141       324  POPE      C213           48.4045742771       35.1514644301       -3.9859841071  MEMB      324             0.0000000000
     38142       324  POPE      H13R           49.2620359714       35.8446493620       -3.8496940892  MEMB      324             0.0000000000
     38143       324  POPE      H13S           48.7448222404       34.1396841056       -4.2939658264  MEMB      324             0.0000000000
     38144       324  POPE      C214           47.6140350730       35.1023182949       -2.6403267397  MEMB      324             0.0000000000
     38145       324  POPE      H14R           46.7709891404       34.3835331780       -2.7236481711  MEMB      324             0.0000000000
     38146       324  POPE      H14S           47.2120343724       36.1257931593       -2.4815308895  MEMB      324             0.0000000000
     38147       324  POPE      C215           48.4171945548       34.5923829298       -1.4635108598  MEMB      324             0.0000000000
     38148       324  POPE      H15R           49.3568043882       35.1837561250       -1.4218954935  MEMB      324             0.0000000000
     38149       324  POPE      H15S           48.7992504141       33.5674262255       -1.6579787729  MEMB      324             0.0000000000
     38150       324  POPE      C216           47.6494327720       34.5301482712       -0.1487766061  MEMB      324             0.0000000000
     38151       324  POPE      H16R           46.6350398740       34.0771421565       -0.1381170062  MEMB      324             0.0000000000
     38152       324  POPE      H16S           47.3956802176       35.6060719812       -0.0377820262  MEMB      324             0.0000000000
     38153       324  POPE      C217           48.4950237806       34.1997623490        1.1058855721  MEMB      324             0.0000000000
     38154       324  POPE      H17R           47.9266014666       34.4769539175        2.0193301132  MEMB      324             0.0000000000
     38155       324  POPE      H17S           49.3564965877       34.8991494783        1.1610519464  MEMB      324             0.0000000000
     38156       324  POPE      C218           49.0110525746       32.7428313141        0.9599808185  MEMB      324             0.0000000000
     38157       324  POPE      H18R           49.8071102046       32.8035258876        0.1873690445  MEMB      324             0.0000000000
     38158       324  POPE      H18S           48.3509993131       31.9546832675        0.5387055770  MEMB      324             0.0000000000
     38159       324  POPE      H18T           49.6023388833       32.3009022289        1.7902836357  MEMB      324             0.0000000000
     38160       324  POPE      C33            45.4888074230       31.6886498097      -11.6822489218  MEMB      324             0.0000000000
     38161       324  POPE      H3X            46.5896393820       31.8061029025      -11.5890022580  MEMB      324             0.0000000000
     38162       324  POPE      H3Y            45.1494611047       31.0513744944      -12.5266692077  MEMB      324             0.0000000000
     38163       324  POPE      C34            45.1852161555       30.8790139764      -10.3815478501  MEMB      324             0.0000000000
     38164       324  POPE      H4X            44.3236518246       30.2067714254      -10.5818435062  MEMB      324             0.0000000000
     38165       324  POPE      H4Y            44.7358139999       31.5187044376       -9.5921464521  MEMB      324             0.0000000000
     38166       324  POPE      C35            46.3771044457       30.1512618984       -9.9420654805  MEMB      324             0.0000000000
     38167       324  POPE      H5X            47.0017949076       30.8683627966       -9.3677405817  MEMB      324             0.0000000000
     38168       324  POPE      H5Y            46.9479604841       29.7559067890      -10.8093244286  MEMB      324             0.0000000000
     38169       324  POPE      C36            45.9618377487       29.1181484570       -8.8243524297  MEMB      324             0.0000000000
     38170       324  POPE      H6X            46.9536647375       28.6892752783       -8.5661493007  MEMB      324             0.0000000000
     38171       324  POPE      H6Y            45.3054806407       28.3685065753       -9.3158327515  MEMB      324             0.0000000000
     38172       324  POPE      C37            45.4565609525       29.6966485740       -7.4831821510  MEMB      324             0.0000000000
     38173       324  POPE      H7X            44.4015210058       30.0431404708       -7.5171718769  MEMB      324             0.0000000000
     38174       324  POPE      H7Y            45.9013692274       30.6990775677       -7.3054107687  MEMB      324             0.0000000000
     38175       324  POPE      C38            45.6404108691       28.8323681725       -6.1828736682  MEMB      324             0.0000000000
     38176       324  POPE      H8X            45.7573050714       27.7518938148       -6.4135937322  MEMB      324             0.0000000000
     38177       324  POPE      H8Y            44.7419419611       28.9593488624       -5.5418196810  MEMB      324             0.0000000000
     38178       324  POPE      C39            46.8938338581       29.2485272418       -5.3868217575  MEMB      324             0.0000000000
     38179       324  POPE      H9X            47.6407006226       29.1297818454       -6.2007082782  MEMB      324             0.0000000000
     38180       324  POPE      H9Y            47.1280548065       28.4541163210       -4.6463002779  MEMB      324             0.0000000000
     38181       324  POPE      C310           46.7769217138       30.4770988532       -4.4778688750  MEMB      324             0.0000000000
     38182       324  POPE      H10X           46.6951702931       31.3912995753       -5.1038677002  MEMB      324             0.0000000000
     38183       324  POPE      H10Y           47.7080063643       30.5893494514       -3.8822163631  MEMB      324             0.0000000000
     38184       324  POPE      C311           45.5985920476       30.6246645105       -3.4888389650  MEMB      324             0.0000000000
     38185       324  POPE      H11X           44.6750993958       30.5505232154       -4.1020151441  MEMB      324             0.0000000000
     38186       324  POPE      H11Y           45.6631455211       31.6405637067       -3.0437518326  MEMB      324             0.0000000000
     38187       324  POPE      C312           45.6334343991       29.4190956391       -2.4982504614  MEMB      324             0.0000000000
     38188       324  POPE      H12X           46.6464325011       28.9793773709       -2.3765780093  MEMB      324             0.0000000000
     38189       324  POPE      H12Y           45.0629399703       28.6723560660       -3.0909032090  MEMB      324             0.0000000000
     38190       324  POPE      C313           44.9500138619       29.7240177514       -1.2022838313  MEMB      324             0.0000000000
     38191       324  POPE      H13X           44.9288431631       28.7889010842       -0.6027584850  MEMB      324             0.0000000000
     38192       324  POPE      H13Y           43.9026336274       30.0637823916       -1.3501870594  MEMB      324             0.0000000000
     38193       324  POPE      C314           45.6921554908       30.7001461488       -0.2680681074  MEMB      324             0.0000000000
     38194       324  POPE      H14X           45.8741255910       31.6130993761       -0.8744719191  MEMB      324             0.0000000000
     38195       324  POPE      H14Y           46.6057082264       30.2093296685        0.1304784248  MEMB      324             0.0000000000
     38196       324  POPE      C315           44.9110957219       31.0208881611        1.0173285304  MEMB      324             0.0000000000
     38197       324  POPE      H15X           44.6775734360       30.0838877922        1.5667101575  MEMB      324             0.0000000000
     38198       324  POPE      H15Y           43.9413163014       31.3493147189        0.5860680523  MEMB      324             0.0000000000
     38199       324  POPE      C316           45.4719083624       31.9982602504        2.0276703692  MEMB      324             0.0000000000
     38200       324  POPE      H16X           44.8256433430       32.1474831494        2.9189586039  MEMB      324             0.0000000000
     38201       324  POPE      H16Y           45.6339563963       33.0204051983        1.6235887073  MEMB      324             0.0000000000
     38202       324  POPE      H16Z           46.4726476976       31.6290646071        2.3383707145  MEMB      324             0.0000000000
     38203       325  POPE      N             -38.8499770278      -36.6278214759      -21.6224700937  MEMB      325             0.0000000000
     38204       325  POPE      HN1           -39.6026267649      -37.3415552008      -21.5469546331  MEMB      325             0.0000000000
     38205       325  POPE      HN2           -39.2627339544      -35.6779467060      -21.5277625243  MEMB      325             0.0000000000
     38206       325  POPE      HN3           -38.3294307619      -36.7201418777      -22.5180753382  MEMB      325             0.0000000000
     38207       325  POPE      C12           -38.0077205719      -36.8226801133      -20.3566048637  MEMB      325             0.0000000000
     38208       325  POPE      H12A          -37.1351378510      -37.4389689980      -20.6617416577  MEMB      325             0.0000000000
     38209       325  POPE      H12B          -38.5747500893      -37.4784204795      -19.6617644057  MEMB      325             0.0000000000
     38210       325  POPE      C11           -37.5256108296      -35.5251464722      -19.9003931262  MEMB      325             0.0000000000
     38211       325  POPE      H11A          -37.0275979008      -34.9803813644      -20.7307755291  MEMB      325             0.0000000000
     38212       325  POPE      H11B          -36.6585867755      -35.6646819777      -19.2198638323  MEMB      325             0.0000000000
     38213       325  POPE      P             -39.2072386733      -34.8987213737      -18.0277005328  MEMB      325             0.0000000000
     38214       325  POPE      O13           -40.2523410821      -35.9811413329      -18.0806486735  MEMB      325             0.0000000000
     38215       325  POPE      O14           -39.7163800076      -33.6354248577      -17.5327250904  MEMB      325             0.0000000000
     38216       325  POPE      O11           -38.0221815381      -35.2996740729      -17.0820200173  MEMB      325             0.0000000000
     38217       325  POPE      O12           -38.5669014704      -34.6201111014      -19.3974376024  MEMB      325             0.0000000000
     38218       325  POPE      C1            -37.7257935357      -36.6464896165      -16.6869878853  MEMB      325             0.0000000000
     38219       325  POPE      HA            -37.7047462733      -37.2470080740      -17.6214694501  MEMB      325             0.0000000000
     38220       325  POPE      HB            -38.5944385758      -37.0846328440      -16.1505112342  MEMB      325             0.0000000000
     38221       325  POPE      C2            -36.4149388078      -36.7102060711      -15.8741945844  MEMB      325             0.0000000000
     38222       325  POPE      HS            -36.1401290062      -37.7767100623      -15.7280113655  MEMB      325             0.0000000000
     38223       325  POPE      O21           -36.5650924964      -35.9876047687      -14.6719188561  MEMB      325             0.0000000000
     38224       325  POPE      C21           -37.3052022002      -36.4526975921      -13.6875005417  MEMB      325             0.0000000000
     38225       325  POPE      O22           -37.9222341228      -37.5164943405      -13.6922960346  MEMB      325             0.0000000000
     38226       325  POPE      C22           -37.2371097395      -35.4259945936      -12.4923345409  MEMB      325             0.0000000000
     38227       325  POPE      H2R           -37.9041235996      -35.6651142943      -11.6366269095  MEMB      325             0.0000000000
     38228       325  POPE      H2S           -37.4901011724      -34.3867052590      -12.7926576502  MEMB      325             0.0000000000
     38229       325  POPE      C3            -35.1702842896      -36.1229249547      -16.7192337680  MEMB      325             0.0000000000
     38230       325  POPE      HX            -34.9929446985      -36.8255917653      -17.5613329638  MEMB      325             0.0000000000
     38231       325  POPE      HY            -34.2396091386      -36.3220211475      -16.1460619898  MEMB      325             0.0000000000
     38232       325  POPE      O31           -35.3203120911      -34.7728300107      -17.1932275563  MEMB      325             0.0000000000
     38233       325  POPE      C31           -34.9189053998      -33.8747544932      -16.3223220404  MEMB      325             0.0000000000
     38234       325  POPE      O32           -34.2879085909      -34.0210424469      -15.2803962105  MEMB      325             0.0000000000
     38235       325  POPE      C32           -35.3939631374      -32.4795333822      -16.7678412267  MEMB      325             0.0000000000
     38236       325  POPE      H2X           -36.3073358392      -32.4475583232      -17.3995445208  MEMB      325             0.0000000000
     38237       325  POPE      H2Y           -34.5228575586      -32.1685990643      -17.3833213479  MEMB      325             0.0000000000
     38238       325  POPE      C23           -35.8323476549      -35.4602051102      -11.9438687147  MEMB      325             0.0000000000
     38239       325  POPE      H3R           -35.8279391935      -34.8241271928      -11.0329864640  MEMB      325             0.0000000000
     38240       325  POPE      H3S           -35.1295034325      -35.0466729737      -12.6984031974  MEMB      325             0.0000000000
     38241       325  POPE      C24           -35.4025741736      -36.8292911543      -11.4679744010  MEMB      325             0.0000000000
     38242       325  POPE      H4R           -35.1552927611      -37.4293310152      -12.3697090270  MEMB      325             0.0000000000
     38243       325  POPE      H4S           -36.3049686050      -37.3459356076      -11.0767152190  MEMB      325             0.0000000000
     38244       325  POPE      C25           -34.1714860232      -36.9625522561      -10.6339942879  MEMB      325             0.0000000000
     38245       325  POPE      H5R           -33.2494111643      -36.5779772836      -11.1199997380  MEMB      325             0.0000000000
     38246       325  POPE      H5S           -33.8379990796      -38.0090386350      -10.4667407344  MEMB      325             0.0000000000
     38247       325  POPE      C26           -34.3962712721      -36.1955403588       -9.2725751515  MEMB      325             0.0000000000
     38248       325  POPE      H6R           -34.5799029256      -35.1651886625       -9.6453699267  MEMB      325             0.0000000000
     38249       325  POPE      H6S           -33.4885730710      -36.3059044832       -8.6415254881  MEMB      325             0.0000000000
     38250       325  POPE      C27           -35.4939735855      -36.7916043096       -8.4275903930  MEMB      325             0.0000000000
     38251       325  POPE      H7R           -35.3858454504      -37.8922585858       -8.5333696515  MEMB      325             0.0000000000
     38252       325  POPE      H7S           -36.4641309190      -36.4776963528       -8.8686997554  MEMB      325             0.0000000000
     38253       325  POPE      C28           -35.4463533602      -36.4980282708       -6.9652151474  MEMB      325             0.0000000000
     38254       325  POPE      H8R           -34.4629778992      -36.8811251274       -6.6180396171  MEMB      325             0.0000000000
     38255       325  POPE      H8S           -36.2183284091      -37.0194343728       -6.3598125443  MEMB      325             0.0000000000
     38256       325  POPE      C29           -35.6326517691      -34.9493000521       -6.7358328843  MEMB      325             0.0000000000
     38257       325  POPE      H91           -35.2304538597      -34.2658683035       -7.4981698065  MEMB      325             0.0000000000
     38258       325  POPE      C210          -36.2960755099      -34.2666664246       -5.7762852418  MEMB      325             0.0000000000
     38259       325  POPE      H101          -36.2976359809      -33.1674965215       -5.8189833007  MEMB      325             0.0000000000
     38260       325  POPE      C211          -37.0079993713      -34.7715412844       -4.5709974882  MEMB      325             0.0000000000
     38261       325  POPE      H11R          -37.6483965720      -35.6332723510       -4.8567108016  MEMB      325             0.0000000000
     38262       325  POPE      H11S          -37.6284938691      -33.9283525211       -4.1990567872  MEMB      325             0.0000000000
     38263       325  POPE      C212          -36.2973457842      -35.3592033598       -3.2862634139  MEMB      325             0.0000000000
     38264       325  POPE      H12R          -35.9192347404      -34.5314797685       -2.6489050045  MEMB      325             0.0000000000
     38265       325  POPE      H12S          -35.3906965449      -35.9044529739       -3.6253958670  MEMB      325             0.0000000000
     38266       325  POPE      C213          -37.0653260954      -36.3461183956       -2.4384425245  MEMB      325             0.0000000000
     38267       325  POPE      H13R          -36.4289270329      -36.9474013660       -1.7545012680  MEMB      325             0.0000000000
     38268       325  POPE      H13S          -37.3923499894      -37.0748050396       -3.2107066911  MEMB      325             0.0000000000
     38269       325  POPE      C214          -38.1975836587      -35.6603174907       -1.6729739238  MEMB      325             0.0000000000
     38270       325  POPE      H14R          -38.9868293917      -35.4305368048       -2.4203774682  MEMB      325             0.0000000000
     38271       325  POPE      H14S          -37.7283781689      -34.6844913821       -1.4241145845  MEMB      325             0.0000000000
     38272       325  POPE      C215          -38.6819740745      -36.3752148102       -0.4330918564  MEMB      325             0.0000000000
     38273       325  POPE      H15R          -39.5958987549      -35.8149515851       -0.1412566545  MEMB      325             0.0000000000
     38274       325  POPE      H15S          -37.8959423875      -36.2972293836        0.3481841819  MEMB      325             0.0000000000
     38275       325  POPE      C216          -39.1230382304      -37.8588999864       -0.6961011444  MEMB      325             0.0000000000
     38276       325  POPE      H16R          -38.2954940024      -38.4601642477       -1.1296589104  MEMB      325             0.0000000000
     38277       325  POPE      H16S          -40.0219270853      -37.9512381363       -1.3424699435  MEMB      325             0.0000000000
     38278       325  POPE      C217          -39.3742453415      -38.5776963648        0.6539605523  MEMB      325             0.0000000000
     38279       325  POPE      H17R          -40.1444231356      -38.1754295789        1.3462949943  MEMB      325             0.0000000000
     38280       325  POPE      H17S          -38.4479713597      -38.5350731149        1.2659407400  MEMB      325             0.0000000000
     38281       325  POPE      C218          -39.7327348714      -40.0795749066        0.6078578491  MEMB      325             0.0000000000
     38282       325  POPE      H18R          -38.8442111799      -40.7291419526        0.4564989732  MEMB      325             0.0000000000
     38283       325  POPE      H18S          -40.4944603483      -40.3063923115       -0.1684469831  MEMB      325             0.0000000000
     38284       325  POPE      H18T          -40.1306600438      -40.3443882962        1.6107792311  MEMB      325             0.0000000000
     38285       325  POPE      C33           -35.6407387355      -31.5613501486      -15.5744775657  MEMB      325             0.0000000000
     38286       325  POPE      H3X           -35.6176163355      -30.5302385582      -15.9875094012  MEMB      325             0.0000000000
     38287       325  POPE      H3Y           -34.7503924366      -31.6502883587      -14.9159228532  MEMB      325             0.0000000000
     38288       325  POPE      C34           -36.9477461119      -31.7103668156      -14.7913655187  MEMB      325             0.0000000000
     38289       325  POPE      H4X           -37.0334243171      -32.7414452884      -14.3865722471  MEMB      325             0.0000000000
     38290       325  POPE      H4Y           -37.7813889154      -31.5762997226      -15.5134363220  MEMB      325             0.0000000000
     38291       325  POPE      C35           -37.0505731494      -30.5726248598      -13.7313705459  MEMB      325             0.0000000000
     38292       325  POPE      H5X           -36.9028726747      -29.6185917529      -14.2812126911  MEMB      325             0.0000000000
     38293       325  POPE      H5Y           -36.3035127294      -30.7725317964      -12.9337122804  MEMB      325             0.0000000000
     38294       325  POPE      C36           -38.3274524985      -30.4331339925      -12.8618655047  MEMB      325             0.0000000000
     38295       325  POPE      H6X           -39.2061158072      -30.2302995017      -13.5108110328  MEMB      325             0.0000000000
     38296       325  POPE      H6Y           -38.1721563357      -29.5772225024      -12.1707644720  MEMB      325             0.0000000000
     38297       325  POPE      C37           -38.6579856665      -31.6023337690      -11.9960214585  MEMB      325             0.0000000000
     38298       325  POPE      H7X           -38.9185663467      -32.4956131112      -12.6030395722  MEMB      325             0.0000000000
     38299       325  POPE      H7Y           -39.6122507515      -31.2753070414      -11.5304543153  MEMB      325             0.0000000000
     38300       325  POPE      C38           -37.5441428665      -31.8917920707      -10.9191502634  MEMB      325             0.0000000000
     38301       325  POPE      H8X           -37.4193123111      -30.9502692170      -10.3427192319  MEMB      325             0.0000000000
     38302       325  POPE      H8Y           -36.6287012704      -32.1801150199      -11.4787550017  MEMB      325             0.0000000000
     38303       325  POPE      C39           -37.9795532521      -33.0969330996      -10.0501235821  MEMB      325             0.0000000000
     38304       325  POPE      H9X           -37.1165355239      -33.3905026119       -9.4150347767  MEMB      325             0.0000000000
     38305       325  POPE      H9Y           -38.2560052935      -33.8933476455      -10.7737391484  MEMB      325             0.0000000000
     38306       325  POPE      C310          -39.1371832749      -32.7257630451       -9.1873157314  MEMB      325             0.0000000000
     38307       325  POPE      H10X          -40.0172685736      -32.4138266145       -9.7893675989  MEMB      325             0.0000000000
     38308       325  POPE      H10Y          -38.9091061454      -31.7774017536       -8.6554207667  MEMB      325             0.0000000000
     38309       325  POPE      C311          -39.5666375514      -33.9012422618       -8.2806846563  MEMB      325             0.0000000000
     38310       325  POPE      H11X          -38.6827253674      -34.5354842985       -8.0553913426  MEMB      325             0.0000000000
     38311       325  POPE      H11Y          -40.2984167896      -34.4738257190       -8.8897561198  MEMB      325             0.0000000000
     38312       325  POPE      C312          -40.1887716277      -33.6901490083       -6.9426569700  MEMB      325             0.0000000000
     38313       325  POPE      H12X          -41.0507370869      -33.0330966741       -7.1868273331  MEMB      325             0.0000000000
     38314       325  POPE      H12Y          -39.5429082476      -33.0301141681       -6.3249717322  MEMB      325             0.0000000000
     38315       325  POPE      C313          -40.7931693002      -34.9209585997       -6.2279335336  MEMB      325             0.0000000000
     38316       325  POPE      H13X          -39.8725204724      -35.5118373329       -6.0340542155  MEMB      325             0.0000000000
     38317       325  POPE      H13Y          -41.4595656475      -35.5323937334       -6.8732120435  MEMB      325             0.0000000000
     38318       325  POPE      C314          -41.5538487978      -34.5900662173       -4.9622749195  MEMB      325             0.0000000000
     38319       325  POPE      H14X          -42.3566778665      -33.8337064402       -5.0953405701  MEMB      325             0.0000000000
     38320       325  POPE      H14Y          -40.8396030498      -34.0029441913       -4.3462706145  MEMB      325             0.0000000000
     38321       325  POPE      C315          -42.0797423644      -35.8135846226       -4.1877026491  MEMB      325             0.0000000000
     38322       325  POPE      H15X          -41.4784302971      -36.7472350845       -4.1554281623  MEMB      325             0.0000000000
     38323       325  POPE      H15Y          -43.0139876335      -36.2276621382       -4.6236463798  MEMB      325             0.0000000000
     38324       325  POPE      C316          -42.3184759317      -35.5057172990       -2.6669852491  MEMB      325             0.0000000000
     38325       325  POPE      H16X          -42.8811812680      -36.2971628530       -2.1272644505  MEMB      325             0.0000000000
     38326       325  POPE      H16Y          -42.9702392023      -34.6150748023       -2.5393835589  MEMB      325             0.0000000000
     38327       325  POPE      H16Z          -41.3823824077      -35.2812257322       -2.1123193315  MEMB      325             0.0000000000
     38328       326  POPC      N              47.9764175022      -16.2653318769      -21.2706086020  MEMB      326             0.0000000000
     38329       326  POPC      C12            47.1807792665      -16.0575796533      -20.0208247560  MEMB      326             0.0000000000
     38330       326  POPC      H12A           46.2209035243      -16.5288110598      -20.1724143747  MEMB      326             0.0000000000
     38331       326  POPC      H12B           46.9007282104      -15.0183514709      -19.9315151432  MEMB      326             0.0000000000
     38332       326  POPC      C13            49.1977128411      -15.5582607044      -21.2093598414  MEMB      326             0.0000000000
     38333       326  POPC      H13A           49.8965587432      -15.9751959825      -20.4993039923  MEMB      326             0.0000000000
     38334       326  POPC      H13B           49.6865946165      -15.3961159915      -22.1586247751  MEMB      326             0.0000000000
     38335       326  POPC      H13C           48.9839861771      -14.5312260315      -20.9526098189  MEMB      326             0.0000000000
     38336       326  POPC      C14            48.3348578838      -17.8189189544      -21.4315898365  MEMB      326             0.0000000000
     38337       326  POPC      H14A           47.4482240514      -18.4093670576      -21.2536804821  MEMB      326             0.0000000000
     38338       326  POPC      H14B           48.7299741169      -17.9402327871      -22.4293702074  MEMB      326             0.0000000000
     38339       326  POPC      H14C           49.1372533804      -17.9385053356      -20.7186658388  MEMB      326             0.0000000000
     38340       326  POPC      C15            47.0812699776      -15.8633862063      -22.4315684299  MEMB      326             0.0000000000
     38341       326  POPC      H15A           46.9189365931      -14.7966616416      -22.3852388065  MEMB      326             0.0000000000
     38342       326  POPC      H15B           46.1318726355      -16.3776342659      -22.4071986808  MEMB      326             0.0000000000
     38343       326  POPC      H15C           47.6076656729      -16.1140762531      -23.3406681136  MEMB      326             0.0000000000
     38344       326  POPC      C11            47.5994598987      -16.5861066936      -18.5913254508  MEMB      326             0.0000000000
     38345       326  POPC      H11A           47.6970877038      -17.6844651895      -18.7269662563  MEMB      326             0.0000000000
     38346       326  POPC      H11B           46.8192662037      -16.3483188932      -17.8369542694  MEMB      326             0.0000000000
     38347       326  POPC      P              49.3514711878      -16.1096702680      -16.7654667591  MEMB      326             0.0000000000
     38348       326  POPC      O13            50.6729257590      -16.7687850373      -16.6922290235  MEMB      326             0.0000000000
     38349       326  POPC      O14            48.2162417863      -16.6236223720      -15.9019688764  MEMB      326             0.0000000000
     38350       326  POPC      O12            48.8336680061      -16.0970579723      -18.2227129692  MEMB      326             0.0000000000
     38351       326  POPC      O11            49.5750900438      -14.5291008739      -16.4623454979  MEMB      326             0.0000000000
     38352       326  POPC      C1             48.7472277296      -13.6031047624      -17.1024928778  MEMB      326             0.0000000000
     38353       326  POPC      HA             47.6721996772      -13.8835067481      -17.1057301397  MEMB      326             0.0000000000
     38354       326  POPC      HB             49.0394374854      -13.3676011087      -18.1481852167  MEMB      326             0.0000000000
     38355       326  POPC      C2             48.8439241737      -12.2658947245      -16.3720916784  MEMB      326             0.0000000000
     38356       326  POPC      HS             49.8650974177      -11.8864141539      -16.5900843764  MEMB      326             0.0000000000
     38357       326  POPC      O21            48.7876177128      -12.4485245444      -14.9602309318  MEMB      326             0.0000000000
     38358       326  POPC      C21            49.8913750520      -12.6439016777      -14.2576053248  MEMB      326             0.0000000000
     38359       326  POPC      O22            51.0638814520      -12.6336104371      -14.6970583594  MEMB      326             0.0000000000
     38360       326  POPC      C22            49.5325902855      -12.9352932163      -12.7871599469  MEMB      326             0.0000000000
     38361       326  POPC      H2R            48.5279068139      -12.6447608879      -12.4122958786  MEMB      326             0.0000000000
     38362       326  POPC      H2S            50.1702409410      -12.2692934826      -12.1673478392  MEMB      326             0.0000000000
     38363       326  POPC      C3             47.7233594014      -11.3316194410      -16.8743307546  MEMB      326             0.0000000000
     38364       326  POPC      HX             47.8543408347      -11.2965952730      -17.9770266737  MEMB      326             0.0000000000
     38365       326  POPC      HY             47.8268652089      -10.2927810148      -16.4943012248  MEMB      326             0.0000000000
     38366       326  POPC      O31            46.4284095965      -11.8791664022      -16.6371874661  MEMB      326             0.0000000000
     38367       326  POPC      C31            45.9502303225      -11.7619217454      -15.4374013032  MEMB      326             0.0000000000
     38368       326  POPC      O32            46.4851680880      -11.3030232637      -14.4446995048  MEMB      326             0.0000000000
     38369       326  POPC      C32            44.6379602408      -12.6015061399      -15.5446054659  MEMB      326             0.0000000000
     38370       326  POPC      H2X            44.6003664214      -13.4101966570      -16.3054781268  MEMB      326             0.0000000000
     38371       326  POPC      H2Y            43.8186856420      -11.8536757994      -15.4824760516  MEMB      326             0.0000000000
     38372       326  POPC      C23            49.7997327782      -14.4537363470      -12.5411903371  MEMB      326             0.0000000000
     38373       326  POPC      H3R            49.4185646675      -15.0402465087      -13.4043462650  MEMB      326             0.0000000000
     38374       326  POPC      H3S            49.1798891041      -14.6866282847      -11.6490714838  MEMB      326             0.0000000000
     38375       326  POPC      C24            51.2509960674      -14.8355973747      -12.3526189447  MEMB      326             0.0000000000
     38376       326  POPC      H4R            51.9196806930      -14.4752512449      -13.1633797314  MEMB      326             0.0000000000
     38377       326  POPC      H4S            51.5081134889      -15.9142459578      -12.2838514869  MEMB      326             0.0000000000
     38378       326  POPC      C25            52.0538529450      -14.2190336960      -11.1774639229  MEMB      326             0.0000000000
     38379       326  POPC      H5R            51.9495898435      -13.1172319611      -11.2748445020  MEMB      326             0.0000000000
     38380       326  POPC      H5S            53.1030927431      -14.5778570132      -11.1091789177  MEMB      326             0.0000000000
     38381       326  POPC      C26            51.3277391065      -14.4851274260       -9.8114323191  MEMB      326             0.0000000000
     38382       326  POPC      H6R            51.1255317165      -15.5473156389       -9.5561098087  MEMB      326             0.0000000000
     38383       326  POPC      H6S            50.3472266648      -13.9823914645       -9.9534651682  MEMB      326             0.0000000000
     38384       326  POPC      C27            52.1604734049      -13.9793685014       -8.6147576101  MEMB      326             0.0000000000
     38385       326  POPC      H7R            53.0160350163      -13.3183504492       -8.8704720265  MEMB      326             0.0000000000
     38386       326  POPC      H7S            52.4883230409      -14.8635734951       -8.0273758616  MEMB      326             0.0000000000
     38387       326  POPC      C28            51.3293874495      -13.1498556016       -7.5880127147  MEMB      326             0.0000000000
     38388       326  POPC      H8R            51.9881871650      -12.9695347419       -6.7117767466  MEMB      326             0.0000000000
     38389       326  POPC      H8S            50.5633200346      -13.8668721841       -7.2228422674  MEMB      326             0.0000000000
     38390       326  POPC      C29            50.9017383318      -11.7696363769       -8.1491801920  MEMB      326             0.0000000000
     38391       326  POPC      H91            51.7371529074      -11.0595341849       -8.2377088189  MEMB      326             0.0000000000
     38392       326  POPC      C210           49.6455538849      -11.4669916590       -8.5401466964  MEMB      326             0.0000000000
     38393       326  POPC      H101           49.4849172769      -10.4599193211       -8.9524584488  MEMB      326             0.0000000000
     38394       326  POPC      C211           48.5884599993      -12.4583391425       -8.4627126489  MEMB      326             0.0000000000
     38395       326  POPC      H11R           48.7755236874      -13.4866102331       -8.8395246099  MEMB      326             0.0000000000
     38396       326  POPC      H11S           47.7408182190      -11.9569944213       -8.9769870808  MEMB      326             0.0000000000
     38397       326  POPC      C212           47.8823939598      -12.7007794177       -7.1151229240  MEMB      326             0.0000000000
     38398       326  POPC      H12R           48.6394633235      -13.0737782364       -6.3926005064  MEMB      326             0.0000000000
     38399       326  POPC      H12S           47.1330916794      -13.4816863067       -7.3662239483  MEMB      326             0.0000000000
     38400       326  POPC      C213           47.2529614969      -11.4616998414       -6.5205705242  MEMB      326             0.0000000000
     38401       326  POPC      H13R           46.4139902063      -11.0379398903       -7.1129184431  MEMB      326             0.0000000000
     38402       326  POPC      H13S           48.0998074721      -10.7442790977       -6.4707641680  MEMB      326             0.0000000000
     38403       326  POPC      C214           46.6713862674      -11.7623010168       -5.0621079145  MEMB      326             0.0000000000
     38404       326  POPC      H14R           46.5462150381      -12.8661811583       -5.0520334831  MEMB      326             0.0000000000
     38405       326  POPC      H14S           45.6873426208      -11.2465703798       -5.0633381189  MEMB      326             0.0000000000
     38406       326  POPC      C215           47.4989923565      -11.2553195249       -3.8677660749  MEMB      326             0.0000000000
     38407       326  POPC      H15R           47.4087904849      -10.1543551115       -3.7491840109  MEMB      326             0.0000000000
     38408       326  POPC      H15S           48.5658009401      -11.5384442347       -3.9945765974  MEMB      326             0.0000000000
     38409       326  POPC      C216           47.0364604423      -11.7333175433       -2.4307295475  MEMB      326             0.0000000000
     38410       326  POPC      H16R           45.9422172705      -11.6620459214       -2.2522021526  MEMB      326             0.0000000000
     38411       326  POPC      H16S           47.6031470470      -11.1140750802       -1.7029075407  MEMB      326             0.0000000000
     38412       326  POPC      C217           47.2903334983      -13.2665386563       -2.2738539665  MEMB      326             0.0000000000
     38413       326  POPC      H17R           47.1444500642      -13.7364969295       -3.2699361739  MEMB      326             0.0000000000
     38414       326  POPC      H17S           46.6738525459      -13.8554238983       -1.5614740319  MEMB      326             0.0000000000
     38415       326  POPC      C218           48.6571709787      -13.4643322724       -1.7838168742  MEMB      326             0.0000000000
     38416       326  POPC      H18R           48.8189607354      -12.9509353708       -0.8119284505  MEMB      326             0.0000000000
     38417       326  POPC      H18S           49.5299281875      -13.2096254944       -2.4223624555  MEMB      326             0.0000000000
     38418       326  POPC      H18T           48.8345096439      -14.5108850044       -1.4557936594  MEMB      326             0.0000000000
     38419       326  POPC      C33            44.3765023826      -13.4651468969      -14.2587599034  MEMB      326             0.0000000000
     38420       326  POPC      H3X            43.3746332893      -13.8869011762      -14.4883306125  MEMB      326             0.0000000000
     38421       326  POPC      H3Y            44.3822593002      -12.7355824554      -13.4208913380  MEMB      326             0.0000000000
     38422       326  POPC      C34            45.3516016811      -14.5727815069      -13.9053674047  MEMB      326             0.0000000000
     38423       326  POPC      H4X            46.3035600183      -14.2527609930      -14.3804288141  MEMB      326             0.0000000000
     38424       326  POPC      H4Y            45.1941164733      -15.5671985753      -14.3751055096  MEMB      326             0.0000000000
     38425       326  POPC      C35            45.5847718451      -14.8366390203      -12.3738605471  MEMB      326             0.0000000000
     38426       326  POPC      H5X            45.8249727865      -13.9883587317      -11.6978098595  MEMB      326             0.0000000000
     38427       326  POPC      H5Y            46.2991755038      -15.6797578179      -12.2594089853  MEMB      326             0.0000000000
     38428       326  POPC      C36            44.2406071976      -15.3711068798      -11.8434439736  MEMB      326             0.0000000000
     38429       326  POPC      H6X            44.1186014816      -16.3914081330      -12.2658433242  MEMB      326             0.0000000000
     38430       326  POPC      H6Y            43.3719058372      -14.8186710616      -12.2611684232  MEMB      326             0.0000000000
     38431       326  POPC      C37            44.0383729617      -15.4588773178      -10.3044695418  MEMB      326             0.0000000000
     38432       326  POPC      H7X            43.1411932988      -16.0728936441      -10.0756172052  MEMB      326             0.0000000000
     38433       326  POPC      H7Y            43.9361139809      -14.4477606540       -9.8555746019  MEMB      326             0.0000000000
     38434       326  POPC      C38            45.1105780485      -16.1463956490       -9.4297704333  MEMB      326             0.0000000000
     38435       326  POPC      H8X            46.0960342291      -15.6469012867       -9.5468287247  MEMB      326             0.0000000000
     38436       326  POPC      H8Y            45.2315131530      -17.2378081039       -9.5986335765  MEMB      326             0.0000000000
     38437       326  POPC      C39            44.7532181467      -15.9505426849       -7.9672811330  MEMB      326             0.0000000000
     38438       326  POPC      H9X            43.6691294599      -16.1921373577       -7.9407377609  MEMB      326             0.0000000000
     38439       326  POPC      H9Y            44.7941206203      -14.8559368029       -7.7815767217  MEMB      326             0.0000000000
     38440       326  POPC      C310           45.5211909765      -16.7362385117       -6.9571917522  MEMB      326             0.0000000000
     38441       326  POPC      H10X           45.4204846438      -17.8326553898       -7.1056816705  MEMB      326             0.0000000000
     38442       326  POPC      H10Y           45.0346889101      -16.5078066683       -5.9848468478  MEMB      326             0.0000000000
     38443       326  POPC      C311           47.0705530998      -16.4051828815       -6.9287240151  MEMB      326             0.0000000000
     38444       326  POPC      H11X           47.1074119381      -15.3475531634       -6.5905201151  MEMB      326             0.0000000000
     38445       326  POPC      H11Y           47.5403664741      -16.4630182556       -7.9338365313  MEMB      326             0.0000000000
     38446       326  POPC      C312           47.9601612614      -17.0675446404       -5.8468974022  MEMB      326             0.0000000000
     38447       326  POPC      H12X           48.8936952642      -16.4673255453       -5.7961799229  MEMB      326             0.0000000000
     38448       326  POPC      H12Y           48.3350595199      -18.0296332464       -6.2569675781  MEMB      326             0.0000000000
     38449       326  POPC      C313           47.1832161297      -17.3320943312       -4.5244339851  MEMB      326             0.0000000000
     38450       326  POPC      H13X           46.3183367703      -17.9404652110       -4.8652998672  MEMB      326             0.0000000000
     38451       326  POPC      H13Y           46.8857664728      -16.2797408978       -4.3284815915  MEMB      326             0.0000000000
     38452       326  POPC      C314           47.9005290720      -18.0347880556       -3.4330852003  MEMB      326             0.0000000000
     38453       326  POPC      H14X           48.7611396565      -17.3679841928       -3.2116288515  MEMB      326             0.0000000000
     38454       326  POPC      H14Y           48.2918460727      -18.9749952690       -3.8771600559  MEMB      326             0.0000000000
     38455       326  POPC      C315           47.1296204137      -18.2817560859       -2.1148904537  MEMB      326             0.0000000000
     38456       326  POPC      H15X           47.8979671764      -18.7494462347       -1.4627941057  MEMB      326             0.0000000000
     38457       326  POPC      H15Y           46.3064412108      -19.0066726920       -2.2915052685  MEMB      326             0.0000000000
     38458       326  POPC      C316           46.5430670412      -17.0334071246       -1.4510180122  MEMB      326             0.0000000000
     38459       326  POPC      H16X           45.7924282954      -17.3354666548       -0.6896890005  MEMB      326             0.0000000000
     38460       326  POPC      H16Y           46.0766253147      -16.3859693932       -2.2240502718  MEMB      326             0.0000000000
     38461       326  POPC      H16Z           47.2625867719      -16.3099243864       -1.0114910921  MEMB      326             0.0000000000
     38462       327  POPC      N             -33.9397900914       45.2843592076      -20.8515962157  MEMB      327             0.0000000000
     38463       327  POPC      C12           -34.5484745971       43.9103632712      -20.5782112299  MEMB      327             0.0000000000
     38464       327  POPC      H12A          -33.8753815018       43.1919916507      -21.0223822580  MEMB      327             0.0000000000
     38465       327  POPC      H12B          -35.5239946131       43.8496381300      -21.0376380769  MEMB      327             0.0000000000
     38466       327  POPC      C13           -33.7566041099       45.6042260485      -22.3383012666  MEMB      327             0.0000000000
     38467       327  POPC      H13A          -34.6832878831       45.8606041213      -22.8301626449  MEMB      327             0.0000000000
     38468       327  POPC      H13B          -33.0886335472       46.4525553262      -22.3618084110  MEMB      327             0.0000000000
     38469       327  POPC      H13C          -33.3367208761       44.8132577143      -22.9420125162  MEMB      327             0.0000000000
     38470       327  POPC      C14           -34.8157940890       46.3948917919      -20.2818762632  MEMB      327             0.0000000000
     38471       327  POPC      H14A          -34.9938171963       46.1892616988      -19.2366853670  MEMB      327             0.0000000000
     38472       327  POPC      H14B          -34.1876203795       47.2727430341      -20.3161551866  MEMB      327             0.0000000000
     38473       327  POPC      H14C          -35.6524653103       46.4719998267      -20.9604304061  MEMB      327             0.0000000000
     38474       327  POPC      C15           -32.5314955701       45.3364543274      -20.2748671166  MEMB      327             0.0000000000
     38475       327  POPC      H15A          -31.7849834268       44.7502226882      -20.7900878212  MEMB      327             0.0000000000
     38476       327  POPC      H15B          -32.6222128585       44.8244542337      -19.3282805264  MEMB      327             0.0000000000
     38477       327  POPC      H15C          -32.3144157515       46.3761220919      -20.0789909832  MEMB      327             0.0000000000
     38478       327  POPC      C11           -34.6869857685       43.5745780717      -19.0375649484  MEMB      327             0.0000000000
     38479       327  POPC      H11A          -33.8296866984       43.8913478593      -18.4058876247  MEMB      327             0.0000000000
     38480       327  POPC      H11B          -34.9268490071       42.4918627064      -18.9703771545  MEMB      327             0.0000000000
     38481       327  POPC      P             -36.3452411682       44.2562827404      -17.0212815881  MEMB      327             0.0000000000
     38482       327  POPC      O13           -35.1845633993       44.4457371493      -16.1175373025  MEMB      327             0.0000000000
     38483       327  POPC      O14           -37.1616479464       43.0562510863      -17.0087434276  MEMB      327             0.0000000000
     38484       327  POPC      O12           -35.7750760211       44.3532852487      -18.5821554099  MEMB      327             0.0000000000
     38485       327  POPC      O11           -37.3409578006       45.5202857921      -16.9078652332  MEMB      327             0.0000000000
     38486       327  POPC      C1            -37.0327346649       46.8405695523      -17.1538685554  MEMB      327             0.0000000000
     38487       327  POPC      HA            -37.8983350721       47.2986016519      -17.6785240368  MEMB      327             0.0000000000
     38488       327  POPC      HB            -36.4096447866       47.0067992582      -18.0585494739  MEMB      327             0.0000000000
     38489       327  POPC      C2            -36.6019454806       47.6312318693      -15.9066619572  MEMB      327             0.0000000000
     38490       327  POPC      HS            -36.5962377675       48.7174589290      -16.1398990194  MEMB      327             0.0000000000
     38491       327  POPC      O21           -35.2803937523       47.2194001570      -15.5741998090  MEMB      327             0.0000000000
     38492       327  POPC      C21           -34.2311590277       47.7797014132      -16.0710312079  MEMB      327             0.0000000000
     38493       327  POPC      O22           -34.1850144835       48.5616194051      -17.0258262968  MEMB      327             0.0000000000
     38494       327  POPC      C22           -32.9774730260       47.3822471897      -15.2727273066  MEMB      327             0.0000000000
     38495       327  POPC      H2R           -32.5594995954       48.3590608669      -14.9479905810  MEMB      327             0.0000000000
     38496       327  POPC      H2S           -32.3186808987       46.8304098379      -15.9768504245  MEMB      327             0.0000000000
     38497       327  POPC      C3            -37.5241898424       47.4693940557      -14.7285144647  MEMB      327             0.0000000000
     38498       327  POPC      HX            -38.5874919309       47.6357258793      -15.0042742453  MEMB      327             0.0000000000
     38499       327  POPC      HY            -37.1867823012       48.2411817002      -14.0040691069  MEMB      327             0.0000000000
     38500       327  POPC      O31           -37.2680394366       46.0782621470      -14.2412815887  MEMB      327             0.0000000000
     38501       327  POPC      C31           -36.8059772231       45.9116956673      -12.9566088355  MEMB      327             0.0000000000
     38502       327  POPC      O32           -36.6863528163       46.8302751306      -12.1804858890  MEMB      327             0.0000000000
     38503       327  POPC      C32           -36.3820058026       44.4924020863      -12.7072156994  MEMB      327             0.0000000000
     38504       327  POPC      H2X           -35.4819476528       44.4671534675      -12.0563862812  MEMB      327             0.0000000000
     38505       327  POPC      H2Y           -36.0911870284       43.9862104629      -13.6524754884  MEMB      327             0.0000000000
     38506       327  POPC      C23           -33.2113655125       46.7037134372      -13.8917690223  MEMB      327             0.0000000000
     38507       327  POPC      H3R           -33.6656958480       45.7205152393      -14.1392081069  MEMB      327             0.0000000000
     38508       327  POPC      H3S           -33.8251426558       47.3266461986      -13.2065290258  MEMB      327             0.0000000000
     38509       327  POPC      C24           -31.9084971510       46.3138978096      -13.2360651909  MEMB      327             0.0000000000
     38510       327  POPC      H4R           -31.3766849901       47.1936700447      -12.8147599766  MEMB      327             0.0000000000
     38511       327  POPC      H4S           -31.2371826517       46.0208956777      -14.0714138501  MEMB      327             0.0000000000
     38512       327  POPC      C25           -31.9146786298       45.0824181702      -12.2065388385  MEMB      327             0.0000000000
     38513       327  POPC      H5R           -30.8893996217       44.6599291648      -12.1385161552  MEMB      327             0.0000000000
     38514       327  POPC      H5S           -32.5195149254       44.2281171135      -12.5789142365  MEMB      327             0.0000000000
     38515       327  POPC      C26           -32.4404312857       45.5294196469      -10.8451404169  MEMB      327             0.0000000000
     38516       327  POPC      H6R           -33.4638332444       45.9014895035      -11.0654434965  MEMB      327             0.0000000000
     38517       327  POPC      H6S           -31.7991064880       46.3527124141      -10.4640721531  MEMB      327             0.0000000000
     38518       327  POPC      C27           -32.4092616844       44.3441392499       -9.9135395620  MEMB      327             0.0000000000
     38519       327  POPC      H7R           -31.4246697125       43.8494642834       -9.7714261256  MEMB      327             0.0000000000
     38520       327  POPC      H7S           -33.1297589782       43.6186797356      -10.3481815326  MEMB      327             0.0000000000
     38521       327  POPC      C28           -32.9711090510       44.7453550252       -8.5665988434  MEMB      327             0.0000000000
     38522       327  POPC      H8R           -34.0555321211       44.9035620043       -8.7491323190  MEMB      327             0.0000000000
     38523       327  POPC      H8S           -32.4734141172       45.7102987836       -8.3310055304  MEMB      327             0.0000000000
     38524       327  POPC      C29           -32.8134859291       43.8030858258       -7.3695714338  MEMB      327             0.0000000000
     38525       327  POPC      H91           -33.1655894276       42.8035421387       -7.6644199027  MEMB      327             0.0000000000
     38526       327  POPC      C210          -32.3159303842       43.9692872783       -6.1096254257  MEMB      327             0.0000000000
     38527       327  POPC      H101          -32.4820792637       43.1608632535       -5.3824076224  MEMB      327             0.0000000000
     38528       327  POPC      C211          -31.7783852436       45.2653901468       -5.6065080934  MEMB      327             0.0000000000
     38529       327  POPC      H11R          -31.3361181617       45.9218908621       -6.3860772137  MEMB      327             0.0000000000
     38530       327  POPC      H11S          -31.0063867001       44.9187406663       -4.8866655377  MEMB      327             0.0000000000
     38531       327  POPC      C212          -32.9422829148       45.9426418450       -4.7987000548  MEMB      327             0.0000000000
     38532       327  POPC      H12R          -33.3118353869       45.2459896047       -4.0161226340  MEMB      327             0.0000000000
     38533       327  POPC      H12S          -33.7644870038       46.0972636641       -5.5297215959  MEMB      327             0.0000000000
     38534       327  POPC      C213          -32.5508911423       47.2537939520       -4.1171577182  MEMB      327             0.0000000000
     38535       327  POPC      H13R          -32.4963559948       48.0095400874       -4.9296809355  MEMB      327             0.0000000000
     38536       327  POPC      H13S          -31.5602047520       47.1342699238       -3.6287159408  MEMB      327             0.0000000000
     38537       327  POPC      C214          -33.6003314444       47.8362870365       -3.1040079573  MEMB      327             0.0000000000
     38538       327  POPC      H14R          -33.7236147078       47.1316739265       -2.2539245216  MEMB      327             0.0000000000
     38539       327  POPC      H14S          -34.5639551595       47.8901711170       -3.6543234248  MEMB      327             0.0000000000
     38540       327  POPC      C215          -33.1108325061       49.1841209151       -2.4663702101  MEMB      327             0.0000000000
     38541       327  POPC      H15R          -32.9775802442       49.9514660244       -3.2586738992  MEMB      327             0.0000000000
     38542       327  POPC      H15S          -32.1035060139       48.9311402434       -2.0718873827  MEMB      327             0.0000000000
     38543       327  POPC      C216          -33.8498352707       49.7326139341       -1.2302668198  MEMB      327             0.0000000000
     38544       327  POPC      H16R          -33.4040783218       50.7354459816       -1.0572057708  MEMB      327             0.0000000000
     38545       327  POPC      H16S          -33.6006680641       49.0586042953       -0.3829487535  MEMB      327             0.0000000000
     38546       327  POPC      C217          -35.3817648613       49.7009222207       -1.3356132173  MEMB      327             0.0000000000
     38547       327  POPC      H17R          -35.8028021945       49.9816436999       -0.3465521204  MEMB      327             0.0000000000
     38548       327  POPC      H17S          -35.8999315653       48.7341947305       -1.5124266516  MEMB      327             0.0000000000
     38549       327  POPC      C218          -35.9146449486       50.8183150083       -2.2658616682  MEMB      327             0.0000000000
     38550       327  POPC      H18R          -35.4330482312       50.7987252069       -3.2668620578  MEMB      327             0.0000000000
     38551       327  POPC      H18S          -35.4886623996       51.7673190748       -1.8756679532  MEMB      327             0.0000000000
     38552       327  POPC      H18T          -37.0213869814       50.8921249444       -2.3290684705  MEMB      327             0.0000000000
     38553       327  POPC      C33           -37.4646703781       43.6923431389      -11.9688808858  MEMB      327             0.0000000000
     38554       327  POPC      H3X           -37.3041203773       42.6132553634      -12.1789143954  MEMB      327             0.0000000000
     38555       327  POPC      H3Y           -38.3641162125       43.9443603091      -12.5703834627  MEMB      327             0.0000000000
     38556       327  POPC      C34           -37.5985542971       43.8756200833      -10.5123942901  MEMB      327             0.0000000000
     38557       327  POPC      H4X           -38.5769871695       43.5783333609      -10.0781011531  MEMB      327             0.0000000000
     38558       327  POPC      H4Y           -37.5407898346       44.9703520123      -10.3319892126  MEMB      327             0.0000000000
     38559       327  POPC      C35           -36.5479041460       43.0020265884       -9.7914574685  MEMB      327             0.0000000000
     38560       327  POPC      H5X           -35.5887610040       43.2353720349      -10.3012760989  MEMB      327             0.0000000000
     38561       327  POPC      H5Y           -36.7007924917       41.9283885871      -10.0328029577  MEMB      327             0.0000000000
     38562       327  POPC      C36           -36.4144942153       43.2757429678       -8.3041927983  MEMB      327             0.0000000000
     38563       327  POPC      H6X           -36.5880307792       44.3177669557       -7.9601107908  MEMB      327             0.0000000000
     38564       327  POPC      H6Y           -35.3496824010       43.0842124794       -8.0515804471  MEMB      327             0.0000000000
     38565       327  POPC      C37           -37.3932234800       42.3695791009       -7.4369442584  MEMB      327             0.0000000000
     38566       327  POPC      H7X           -37.0438136095       41.3414820084       -7.6719994021  MEMB      327             0.0000000000
     38567       327  POPC      H7Y           -38.4500035687       42.5400045823       -7.7344206376  MEMB      327             0.0000000000
     38568       327  POPC      C38           -37.3325491562       42.8845037957       -5.9557159225  MEMB      327             0.0000000000
     38569       327  POPC      H8X           -38.2417801720       42.6343522452       -5.3683120416  MEMB      327             0.0000000000
     38570       327  POPC      H8Y           -37.1801879041       43.9845135475       -5.9227701607  MEMB      327             0.0000000000
     38571       327  POPC      C39           -36.1939731800       42.0634982607       -5.3113744444  MEMB      327             0.0000000000
     38572       327  POPC      H9X           -35.2303404232       42.3942580322       -5.7544663376  MEMB      327             0.0000000000
     38573       327  POPC      H9Y           -36.1860889342       40.9791185118       -5.5529920001  MEMB      327             0.0000000000
     38574       327  POPC      C310          -36.0728742035       42.1707367384       -3.7572051690  MEMB      327             0.0000000000
     38575       327  POPC      H10X          -35.0531097890       41.8086754206       -3.5055834296  MEMB      327             0.0000000000
     38576       327  POPC      H10Y          -36.8123365076       41.5168031156       -3.2474135134  MEMB      327             0.0000000000
     38577       327  POPC      C311          -36.2518537305       43.6632847940       -3.2658770075  MEMB      327             0.0000000000
     38578       327  POPC      H11X          -37.2710539643       44.0293988831       -3.5138931992  MEMB      327             0.0000000000
     38579       327  POPC      H11Y          -35.4616774307       44.2741798442       -3.7524464393  MEMB      327             0.0000000000
     38580       327  POPC      C312          -36.0079452531       43.6531988207       -1.6676650098  MEMB      327             0.0000000000
     38581       327  POPC      H12X          -34.9889153093       43.2619270211       -1.4607720752  MEMB      327             0.0000000000
     38582       327  POPC      H12Y          -36.8154935720       43.0642389537       -1.1825751490  MEMB      327             0.0000000000
     38583       327  POPC      C313          -36.1448834333       45.0072456048       -1.0091228197  MEMB      327             0.0000000000
     38584       327  POPC      H13X          -37.0820047453       45.5614165601       -1.2305239567  MEMB      327             0.0000000000
     38585       327  POPC      H13Y          -35.3898790240       45.7206332934       -1.4032891694  MEMB      327             0.0000000000
     38586       327  POPC      C314          -35.8274446551       44.9494881817        0.4957509962  MEMB      327             0.0000000000
     38587       327  POPC      H14X          -34.9981907956       44.2994507538        0.8480446701  MEMB      327             0.0000000000
     38588       327  POPC      H14Y          -36.7723092978       44.7090292858        1.0284163361  MEMB      327             0.0000000000
     38589       327  POPC      C315          -35.5990682949       46.3929684316        1.0310258844  MEMB      327             0.0000000000
     38590       327  POPC      H15X          -36.3475128492       47.1254169724        0.6599858610  MEMB      327             0.0000000000
     38591       327  POPC      H15Y          -34.6131155807       46.5794606274        0.5541198701  MEMB      327             0.0000000000
     38592       327  POPC      C316          -35.4654834354       46.4828337680        2.5299569683  MEMB      327             0.0000000000
     38593       327  POPC      H16X          -34.5514233764       45.9483463683        2.8663184376  MEMB      327             0.0000000000
     38594       327  POPC      H16Y          -36.3641076773       45.9693413604        2.9338396083  MEMB      327             0.0000000000
     38595       327  POPC      H16Z          -35.4955185210       47.5469493955        2.8478844858  MEMB      327             0.0000000000
     38596       328  POPC      N              34.2644045292      -41.6489564542      -20.0625327761  MEMB      328             0.0000000000
     38597       328  POPC      C12            35.1157983094      -42.8418593754      -20.4410834638  MEMB      328             0.0000000000
     38598       328  POPC      H12A           36.1053749687      -42.7209410145      -20.0257320824  MEMB      328             0.0000000000
     38599       328  POPC      H12B           35.1554818538      -42.8469758618      -21.5203421046  MEMB      328             0.0000000000
     38600       328  POPC      C13            34.3094455023      -41.3693851543      -18.6195294050  MEMB      328             0.0000000000
     38601       328  POPC      H13A           33.7773607797      -42.1637759919      -18.1173053480  MEMB      328             0.0000000000
     38602       328  POPC      H13B           35.2986210410      -41.2960586819      -18.1922647134  MEMB      328             0.0000000000
     38603       328  POPC      H13C           33.6856621995      -40.5527677316      -18.2872186423  MEMB      328             0.0000000000
     38604       328  POPC      C14            34.8517896011      -40.4238860332      -20.8206398157  MEMB      328             0.0000000000
     38605       328  POPC      H14A           34.0970597388      -39.6681514698      -20.6604895965  MEMB      328             0.0000000000
     38606       328  POPC      H14B           35.8112089497      -40.1474533584      -20.4089364520  MEMB      328             0.0000000000
     38607       328  POPC      H14C           34.9719896174      -40.8053047171      -21.8238703988  MEMB      328             0.0000000000
     38608       328  POPC      C15            32.8234806761      -41.8978399827      -20.4514668966  MEMB      328             0.0000000000
     38609       328  POPC      H15A           32.8195111936      -41.9952355578      -21.5270588601  MEMB      328             0.0000000000
     38610       328  POPC      H15B           32.1955412821      -41.0553186096      -20.2019668327  MEMB      328             0.0000000000
     38611       328  POPC      H15C           32.4162387924      -42.8395064931      -20.1140972308  MEMB      328             0.0000000000
     38612       328  POPC      C11            34.7389388301      -44.3092515348      -20.0816567217  MEMB      328             0.0000000000
     38613       328  POPC      H11A           35.5539263008      -45.0155913104      -20.3484910198  MEMB      328             0.0000000000
     38614       328  POPC      H11B           33.8137539384      -44.6008477616      -20.6232520993  MEMB      328             0.0000000000
     38615       328  POPC      P              35.6818978465      -45.0122267187      -17.7655557850  MEMB      328             0.0000000000
     38616       328  POPC      O13            36.7801249662      -43.9883447270      -17.7386400976  MEMB      328             0.0000000000
     38617       328  POPC      O14            36.0862719057      -46.4151361076      -18.0272553896  MEMB      328             0.0000000000
     38618       328  POPC      O12            34.4725088026      -44.4560418964      -18.7141794320  MEMB      328             0.0000000000
     38619       328  POPC      O11            34.9683835334      -44.9333860185      -16.2774602140  MEMB      328             0.0000000000
     38620       328  POPC      C1             33.8104615609      -45.7060328426      -16.0785466220  MEMB      328             0.0000000000
     38621       328  POPC      HA             33.9622347065      -46.7624764347      -16.3871130642  MEMB      328             0.0000000000
     38622       328  POPC      HB             32.9241883638      -45.4749388916      -16.7073840268  MEMB      328             0.0000000000
     38623       328  POPC      C2             33.3301733696      -45.6393526961      -14.5891827817  MEMB      328             0.0000000000
     38624       328  POPC      HS             32.2785430807      -45.9951031478      -14.5463289141  MEMB      328             0.0000000000
     38625       328  POPC      O21            33.4015475708      -44.2710289141      -13.9663640918  MEMB      328             0.0000000000
     38626       328  POPC      C21            32.7088068919      -43.2775718948      -14.5420130028  MEMB      328             0.0000000000
     38627       328  POPC      O22            32.0009848987      -43.3446296509      -15.5282213231  MEMB      328             0.0000000000
     38628       328  POPC      C22            32.8200926544      -42.0234085778      -13.6900061743  MEMB      328             0.0000000000
     38629       328  POPC      H2R            32.4745362381      -42.3441477466      -12.6840050569  MEMB      328             0.0000000000
     38630       328  POPC      H2S            32.0884865802      -41.3329212781      -14.1614939921  MEMB      328             0.0000000000
     38631       328  POPC      C3             34.2420944971      -46.6351058243      -13.7993622526  MEMB      328             0.0000000000
     38632       328  POPC      HX             35.2850500176      -46.3267067390      -14.0261990652  MEMB      328             0.0000000000
     38633       328  POPC      HY             33.8992890010      -47.6019138925      -14.2260791026  MEMB      328             0.0000000000
     38634       328  POPC      O31            33.9461595436      -46.7298494790      -12.3630837131  MEMB      328             0.0000000000
     38635       328  POPC      C31            34.8384595886      -46.1554876622      -11.5387610817  MEMB      328             0.0000000000
     38636       328  POPC      O32            35.9861087464      -45.8124596007      -11.7568833539  MEMB      328             0.0000000000
     38637       328  POPC      C32            34.2082635934      -46.0151304642      -10.1511502599  MEMB      328             0.0000000000
     38638       328  POPC      H2X            33.4447986008      -45.2225931255      -10.3038812836  MEMB      328             0.0000000000
     38639       328  POPC      H2Y            34.8974613264      -45.5159868126       -9.4368790982  MEMB      328             0.0000000000
     38640       328  POPC      C23            34.3198785909      -41.6242858541      -13.6159841174  MEMB      328             0.0000000000
     38641       328  POPC      H3R            34.7795116669      -41.4893846107      -14.6184114431  MEMB      328             0.0000000000
     38642       328  POPC      H3S            34.8425778759      -42.3949218872      -13.0099917988  MEMB      328             0.0000000000
     38643       328  POPC      C24            34.5679191627      -40.3251187676      -12.8229897220  MEMB      328             0.0000000000
     38644       328  POPC      H4R            34.1496808586      -39.4733378765      -13.4008018376  MEMB      328             0.0000000000
     38645       328  POPC      H4S            35.6513142623      -40.1914942316      -12.6163002393  MEMB      328             0.0000000000
     38646       328  POPC      C25            33.9255860545      -40.2192073351      -11.4191283693  MEMB      328             0.0000000000
     38647       328  POPC      H5R            32.8597782735      -40.5284818436      -11.4713203597  MEMB      328             0.0000000000
     38648       328  POPC      H5S            34.0030119789      -39.1305709651      -11.2112893897  MEMB      328             0.0000000000
     38649       328  POPC      C26            34.6443658236      -40.9457948119      -10.2650103631  MEMB      328             0.0000000000
     38650       328  POPC      H6R            35.6726619710      -40.5399004608      -10.3753618732  MEMB      328             0.0000000000
     38651       328  POPC      H6S            34.6014566148      -42.0536014098      -10.3374305864  MEMB      328             0.0000000000
     38652       328  POPC      C27            34.1957191775      -40.4831104418       -8.8659882348  MEMB      328             0.0000000000
     38653       328  POPC      H7R            33.0870211692      -40.5545041711       -8.8624329497  MEMB      328             0.0000000000
     38654       328  POPC      H7S            34.3865349865      -39.3997715946       -8.7101451873  MEMB      328             0.0000000000
     38655       328  POPC      C28            34.7356044072      -41.3445224230       -7.7311709326  MEMB      328             0.0000000000
     38656       328  POPC      H8R            34.3962320783      -42.3842221837       -7.9265465237  MEMB      328             0.0000000000
     38657       328  POPC      H8S            34.2896219249      -41.0259163549       -6.7647797951  MEMB      328             0.0000000000
     38658       328  POPC      C29            36.2426504149      -41.2784601324       -7.7457329035  MEMB      328             0.0000000000
     38659       328  POPC      H91            36.7731930187      -40.3156507606       -7.7847536704  MEMB      328             0.0000000000
     38660       328  POPC      C210           37.0720204003      -42.3295917191       -7.7582182132  MEMB      328             0.0000000000
     38661       328  POPC      H101           38.1526714113      -42.1255709994       -7.7820702247  MEMB      328             0.0000000000
     38662       328  POPC      C211           36.6907657656      -43.8180363927       -7.7385458364  MEMB      328             0.0000000000
     38663       328  POPC      H11R           37.5956091128      -44.3437897098       -8.1115914448  MEMB      328             0.0000000000
     38664       328  POPC      H11S           35.9165182928      -44.0270369867       -8.5074285179  MEMB      328             0.0000000000
     38665       328  POPC      C212           36.1344648545      -44.3948987109       -6.3796209884  MEMB      328             0.0000000000
     38666       328  POPC      H12R           35.6226564854      -45.3807361858       -6.4019292181  MEMB      328             0.0000000000
     38667       328  POPC      H12S           35.3597529410      -43.6308602088       -6.1551506483  MEMB      328             0.0000000000
     38668       328  POPC      C213           37.2126625618      -44.4208866987       -5.2948934013  MEMB      328             0.0000000000
     38669       328  POPC      H13R           37.8814592841      -43.5352052278       -5.3458852850  MEMB      328             0.0000000000
     38670       328  POPC      H13S           37.8041702552      -45.3572182781       -5.3827697618  MEMB      328             0.0000000000
     38671       328  POPC      C214           36.5890906900      -44.2812535268       -3.9208395121  MEMB      328             0.0000000000
     38672       328  POPC      H14R           35.8923081988      -43.4254236772       -3.7928924094  MEMB      328             0.0000000000
     38673       328  POPC      H14S           37.3574724279      -44.1125145496       -3.1363410091  MEMB      328             0.0000000000
     38674       328  POPC      C215           36.0014960114      -45.6493559886       -3.4927444466  MEMB      328             0.0000000000
     38675       328  POPC      H15R           36.7102637163      -46.4501993220       -3.7937737858  MEMB      328             0.0000000000
     38676       328  POPC      H15S           35.0693550628      -45.8040111313       -4.0771387448  MEMB      328             0.0000000000
     38677       328  POPC      C216           35.6772909506      -45.7373745724       -1.9823495908  MEMB      328             0.0000000000
     38678       328  POPC      H16R           35.1393055087      -44.8328754113       -1.6262967847  MEMB      328             0.0000000000
     38679       328  POPC      H16S           36.6730249127      -45.7821743092       -1.4916072291  MEMB      328             0.0000000000
     38680       328  POPC      C217           34.9036841933      -47.1208145777       -1.7029081497  MEMB      328             0.0000000000
     38681       328  POPC      H17R           35.0062326712      -47.3298232272       -0.6165748854  MEMB      328             0.0000000000
     38682       328  POPC      H17S           35.4252558432      -47.9245397815       -2.2653217688  MEMB      328             0.0000000000
     38683       328  POPC      C218           33.5209666973      -47.3089381258       -2.2389332493  MEMB      328             0.0000000000
     38684       328  POPC      H18R           33.6063709601      -47.0194991897       -3.3081626485  MEMB      328             0.0000000000
     38685       328  POPC      H18S           32.7739841969      -46.5919749278       -1.8360664388  MEMB      328             0.0000000000
     38686       328  POPC      H18T           32.9960464127      -48.2596964026       -2.0047563386  MEMB      328             0.0000000000
     38687       328  POPC      C33            33.6977658139      -47.3950360580       -9.5770652889  MEMB      328             0.0000000000
     38688       328  POPC      H3X            34.4038414260      -48.2449132458       -9.6932005442  MEMB      328             0.0000000000
     38689       328  POPC      H3Y            32.7159853274      -47.5557631825      -10.0716310843  MEMB      328             0.0000000000
     38690       328  POPC      C34            33.3391643704      -47.5148106266       -8.1083881588  MEMB      328             0.0000000000
     38691       328  POPC      H4X            34.1943397024      -47.1566115653       -7.4962691927  MEMB      328             0.0000000000
     38692       328  POPC      H4Y            33.1032104336      -48.5879321402       -7.9438974834  MEMB      328             0.0000000000
     38693       328  POPC      C35            32.1911049837      -46.6153566072       -7.7038253774  MEMB      328             0.0000000000
     38694       328  POPC      H5X            31.1801486080      -46.8564230615       -8.0964771102  MEMB      328             0.0000000000
     38695       328  POPC      H5Y            32.3342344008      -45.7170902318       -8.3417544374  MEMB      328             0.0000000000
     38696       328  POPC      C36            32.1103856659      -46.2170540227       -6.2280260034  MEMB      328             0.0000000000
     38697       328  POPC      H6X            32.9218572154      -45.4925062883       -6.0024920547  MEMB      328             0.0000000000
     38698       328  POPC      H6Y            32.0162654969      -47.1037892540       -5.5653323240  MEMB      328             0.0000000000
     38699       328  POPC      C37            30.8881496522      -45.2535712529       -6.0888311336  MEMB      328             0.0000000000
     38700       328  POPC      H7X            30.0111896304      -45.8311568133       -6.4516763482  MEMB      328             0.0000000000
     38701       328  POPC      H7Y            31.0461242416      -44.3522109566       -6.7188427843  MEMB      328             0.0000000000
     38702       328  POPC      C38            30.6177179894      -44.8732028876       -4.6447863399  MEMB      328             0.0000000000
     38703       328  POPC      H8X            30.6466675080      -45.7981789388       -4.0300492433  MEMB      328             0.0000000000
     38704       328  POPC      H8Y            29.5610595275      -44.5347263658       -4.5879763099  MEMB      328             0.0000000000
     38705       328  POPC      C39            31.6194337880      -43.8947208732       -3.9609601732  MEMB      328             0.0000000000
     38706       328  POPC      H9X            31.9655285426      -43.1525606162       -4.7117851135  MEMB      328             0.0000000000
     38707       328  POPC      H9Y            32.4774987590      -44.4175622942       -3.4869537487  MEMB      328             0.0000000000
     38708       328  POPC      C310           31.0552007127      -43.1143056431       -2.7827647242  MEMB      328             0.0000000000
     38709       328  POPC      H10X           30.9679435755      -43.8685183740       -1.9716726890  MEMB      328             0.0000000000
     38710       328  POPC      H10Y           30.0368580538      -42.7975724504       -3.0941791055  MEMB      328             0.0000000000
     38711       328  POPC      C311           32.0102889655      -42.0598174353       -2.2436275466  MEMB      328             0.0000000000
     38712       328  POPC      H11X           31.4345420285      -41.4442887773       -1.5197755979  MEMB      328             0.0000000000
     38713       328  POPC      H11Y           32.3230398544      -41.3083495711       -2.9998055903  MEMB      328             0.0000000000
     38714       328  POPC      C312           33.3016199011      -42.6140483449       -1.5761517482  MEMB      328             0.0000000000
     38715       328  POPC      H12X           33.9699628126      -43.0229103169       -2.3638515464  MEMB      328             0.0000000000
     38716       328  POPC      H12Y           32.9549697210      -43.3652296518       -0.8346133386  MEMB      328             0.0000000000
     38717       328  POPC      C313           34.1101026746      -41.6114023164       -0.7570547435  MEMB      328             0.0000000000
     38718       328  POPC      H13X           33.3832800371      -41.0669552563       -0.1170339794  MEMB      328             0.0000000000
     38719       328  POPC      H13Y           34.6037684788      -40.9506808520       -1.5014085086  MEMB      328             0.0000000000
     38720       328  POPC      C314           35.1902572872      -42.2872655825        0.0824870013  MEMB      328             0.0000000000
     38721       328  POPC      H14X           35.8889717447      -42.5878771703       -0.7272968732  MEMB      328             0.0000000000
     38722       328  POPC      H14Y           34.7852834000      -43.0456370697        0.7861853588  MEMB      328             0.0000000000
     38723       328  POPC      C315           35.8489891824      -41.3341520320        1.0246861251  MEMB      328             0.0000000000
     38724       328  POPC      H15X           35.1660190313      -40.6249219941        1.5393374774  MEMB      328             0.0000000000
     38725       328  POPC      H15Y           36.4425734012      -40.5610033135        0.4915636569  MEMB      328             0.0000000000
     38726       328  POPC      C316           36.8354952201      -42.0286901540        1.9451957859  MEMB      328             0.0000000000
     38727       328  POPC      H16X           37.8032176034      -42.3172256543        1.4819658508  MEMB      328             0.0000000000
     38728       328  POPC      H16Y           36.3190421743      -42.8346250301        2.5091693705  MEMB      328             0.0000000000
     38729       328  POPC      H16Z           37.1167770764      -41.3993824077        2.8165011246  MEMB      328             0.0000000000
     38730       329  POPC      N             -22.2560409404       51.2929783177      -19.8446386711  MEMB      329             0.0000000000
     38731       329  POPC      C12           -21.0075635716       50.6595081491      -19.2961023861  MEMB      329             0.0000000000
     38732       329  POPC      H12A          -20.3191058390       51.4717956485      -19.1155066063  MEMB      329             0.0000000000
     38733       329  POPC      H12B          -20.7068438704       49.9507962708      -20.0535290034  MEMB      329             0.0000000000
     38734       329  POPC      C13           -23.0941665262       51.8441930965      -18.7355755723  MEMB      329             0.0000000000
     38735       329  POPC      H13A          -23.4657667643       51.0266718474      -18.1355988763  MEMB      329             0.0000000000
     38736       329  POPC      H13B          -22.4614629689       52.4915640752      -18.1465108490  MEMB      329             0.0000000000
     38737       329  POPC      H13C          -23.9541194839       52.3845776243      -19.1028161987  MEMB      329             0.0000000000
     38738       329  POPC      C14           -21.8930086418       52.4297895917      -20.8111226533  MEMB      329             0.0000000000
     38739       329  POPC      H14A          -21.2836771167       52.0434806903      -21.6147896156  MEMB      329             0.0000000000
     38740       329  POPC      H14B          -22.8031309982       52.7587099373      -21.2905899234  MEMB      329             0.0000000000
     38741       329  POPC      H14C          -21.4809113909       53.2983329245      -20.3189761247  MEMB      329             0.0000000000
     38742       329  POPC      C15           -22.9962425836       50.3514622319      -20.6754299459  MEMB      329             0.0000000000
     38743       329  POPC      H15A          -23.4329682263       49.5853907039      -20.0518875532  MEMB      329             0.0000000000
     38744       329  POPC      H15B          -22.1558172242       49.9151008953      -21.1947315162  MEMB      329             0.0000000000
     38745       329  POPC      H15C          -23.7160417747       50.9544846224      -21.2089589037  MEMB      329             0.0000000000
     38746       329  POPC      C11           -21.0356832288       49.8169379273      -17.9868016644  MEMB      329             0.0000000000
     38747       329  POPC      H11A          -21.2030319138       50.5233211622      -17.1457677433  MEMB      329             0.0000000000
     38748       329  POPC      H11B          -20.0685966620       49.3434920238      -17.7130980981  MEMB      329             0.0000000000
     38749       329  POPC      P             -21.9593052349       47.4279609112      -18.3807802658  MEMB      329             0.0000000000
     38750       329  POPC      O13           -20.9524179816       46.8427024553      -17.4877259382  MEMB      329             0.0000000000
     38751       329  POPC      O14           -21.8340255329       47.1886190267      -19.8416664800  MEMB      329             0.0000000000
     38752       329  POPC      O12           -22.1598931194       48.9462240530      -18.0376157041  MEMB      329             0.0000000000
     38753       329  POPC      O11           -23.3712402750       46.9133211115      -17.9025406734  MEMB      329             0.0000000000
     38754       329  POPC      C1            -24.3980111704       46.5646613801      -18.7518134706  MEMB      329             0.0000000000
     38755       329  POPC      HA            -24.3440399727       45.5256944225      -19.1416286650  MEMB      329             0.0000000000
     38756       329  POPC      HB            -24.4046654665       47.2875106787      -19.5954755056  MEMB      329             0.0000000000
     38757       329  POPC      C2            -25.6827580857       46.5344418729      -17.8595667229  MEMB      329             0.0000000000
     38758       329  POPC      HS            -26.6185215434       46.4895248314      -18.4567690330  MEMB      329             0.0000000000
     38759       329  POPC      O21           -25.7857023154       47.7716172694      -17.0643324710  MEMB      329             0.0000000000
     38760       329  POPC      C21           -25.8953916309       48.9170443900      -17.7338137686  MEMB      329             0.0000000000
     38761       329  POPC      O22           -26.2732446740       49.0425410263      -18.9076567439  MEMB      329             0.0000000000
     38762       329  POPC      C22           -25.6040769563       50.0776166837      -16.7175708767  MEMB      329             0.0000000000
     38763       329  POPC      H2R           -26.5748392186       50.4875504983      -16.3655816920  MEMB      329             0.0000000000
     38764       329  POPC      H2S           -25.1264003666       50.8705638487      -17.3318840787  MEMB      329             0.0000000000
     38765       329  POPC      C3            -25.6327472700       45.3159559801      -16.8863589818  MEMB      329             0.0000000000
     38766       329  POPC      HX            -25.7078975096       44.3638424403      -17.4539447967  MEMB      329             0.0000000000
     38767       329  POPC      HY            -26.5524114896       45.3357568715      -16.2633447842  MEMB      329             0.0000000000
     38768       329  POPC      O31           -24.5016700456       45.1586658741      -16.0589845508  MEMB      329             0.0000000000
     38769       329  POPC      C31           -24.4669382971       45.8666638667      -14.9046320122  MEMB      329             0.0000000000
     38770       329  POPC      O32           -25.3922297130       46.4616649506      -14.3786077852  MEMB      329             0.0000000000
     38771       329  POPC      C32           -23.0819497005       45.6246336488      -14.4441144137  MEMB      329             0.0000000000
     38772       329  POPC      H2X           -22.2896929959       46.0836985451      -15.0733274351  MEMB      329             0.0000000000
     38773       329  POPC      H2Y           -22.9554301845       44.5210871641      -14.4664575732  MEMB      329             0.0000000000
     38774       329  POPC      C23           -24.6788518335       49.7813637885      -15.4826092927  MEMB      329             0.0000000000
     38775       329  POPC      H3R           -23.9061088247       49.0293733096      -15.7503773892  MEMB      329             0.0000000000
     38776       329  POPC      H3S           -25.2509269022       49.4184653173      -14.6020667447  MEMB      329             0.0000000000
     38777       329  POPC      C24           -23.8501351181       50.9935924832      -15.0360718852  MEMB      329             0.0000000000
     38778       329  POPC      H4R           -24.5386881844       51.8635753679      -15.0939131760  MEMB      329             0.0000000000
     38779       329  POPC      H4S           -23.0654413647       51.1894768997      -15.7977844438  MEMB      329             0.0000000000
     38780       329  POPC      C25           -23.1947503611       50.9735719740      -13.6272856881  MEMB      329             0.0000000000
     38781       329  POPC      H5R           -22.7626979599       49.9653984273      -13.4505433814  MEMB      329             0.0000000000
     38782       329  POPC      H5S           -24.0008189157       51.1281379500      -12.8784972052  MEMB      329             0.0000000000
     38783       329  POPC      C26           -22.0821899734       52.0920120245      -13.5292515936  MEMB      329             0.0000000000
     38784       329  POPC      H6R           -22.6593042907       53.0408525247      -13.5602664415  MEMB      329             0.0000000000
     38785       329  POPC      H6S           -21.4402840363       52.0940249886      -14.4360443775  MEMB      329             0.0000000000
     38786       329  POPC      C27           -21.2370704281       51.9020080393      -12.2706815756  MEMB      329             0.0000000000
     38787       329  POPC      H7R           -20.2515723599       52.4146867620      -12.2872794399  MEMB      329             0.0000000000
     38788       329  POPC      H7S           -21.0617215037       50.8132866181      -12.1355542815  MEMB      329             0.0000000000
     38789       329  POPC      C28           -22.0733448240       52.2251131224      -10.9536342716  MEMB      329             0.0000000000
     38790       329  POPC      H8R           -23.1429306861       51.9733091710      -11.1176529629  MEMB      329             0.0000000000
     38791       329  POPC      H8S           -22.1141349119       53.3283340404      -10.8288920473  MEMB      329             0.0000000000
     38792       329  POPC      C29           -21.5923217367       51.5186567078       -9.6572725591  MEMB      329             0.0000000000
     38793       329  POPC      H91           -20.5936626811       51.8013477378       -9.2929017207  MEMB      329             0.0000000000
     38794       329  POPC      C210          -22.3603581558       50.5815391773       -9.0679728524  MEMB      329             0.0000000000
     38795       329  POPC      H101          -21.9619401380       50.2252955590       -8.1065397004  MEMB      329             0.0000000000
     38796       329  POPC      C211          -23.7212246549       50.0714422548       -9.4120016707  MEMB      329             0.0000000000
     38797       329  POPC      H11R          -23.7556805638       49.0337697663       -9.0165652368  MEMB      329             0.0000000000
     38798       329  POPC      H11S          -23.8284719524       49.9217982044      -10.5076409266  MEMB      329             0.0000000000
     38799       329  POPC      C212          -24.8015539202       50.9009211887       -8.7618248236  MEMB      329             0.0000000000
     38800       329  POPC      H12R          -25.7494165463       50.3829340015       -9.0217607565  MEMB      329             0.0000000000
     38801       329  POPC      H12S          -24.7524830404       51.8643092814       -9.3130024670  MEMB      329             0.0000000000
     38802       329  POPC      C213          -24.7623167199       51.1521124458       -7.3073342010  MEMB      329             0.0000000000
     38803       329  POPC      H13R          -25.5745954502       51.7842036765       -6.8890221302  MEMB      329             0.0000000000
     38804       329  POPC      H13S          -23.7941289875       51.6077893549       -7.0085168330  MEMB      329             0.0000000000
     38805       329  POPC      C214          -24.9465345460       49.9142325157       -6.3549258634  MEMB      329             0.0000000000
     38806       329  POPC      H14R          -23.9795189027       49.6614697817       -5.8698352817  MEMB      329             0.0000000000
     38807       329  POPC      H14S          -25.2136374875       49.0286565481       -6.9703373276  MEMB      329             0.0000000000
     38808       329  POPC      C215          -26.0308531086       50.1529951763       -5.3327202166  MEMB      329             0.0000000000
     38809       329  POPC      H15R          -27.0186568186       50.2769744534       -5.8258672709  MEMB      329             0.0000000000
     38810       329  POPC      H15S          -25.7076944904       51.1074149912       -4.8647755598  MEMB      329             0.0000000000
     38811       329  POPC      C216          -26.2091112736       48.9943722835       -4.3231710970  MEMB      329             0.0000000000
     38812       329  POPC      H16R          -25.2571519250       48.6338824107       -3.8780402972  MEMB      329             0.0000000000
     38813       329  POPC      H16S          -26.6455352572       48.1131603199       -4.8402019365  MEMB      329             0.0000000000
     38814       329  POPC      C217          -27.0666170019       49.3261291752       -3.1566381871  MEMB      329             0.0000000000
     38815       329  POPC      H17R          -28.0782515584       49.5462873663       -3.5596850096  MEMB      329             0.0000000000
     38816       329  POPC      H17S          -26.6863668480       50.2552275768       -2.6807106761  MEMB      329             0.0000000000
     38817       329  POPC      C218          -27.2017243467       48.3294766712       -2.0687668371  MEMB      329             0.0000000000
     38818       329  POPC      H18R          -28.1059247986       47.6957940285       -2.1920101629  MEMB      329             0.0000000000
     38819       329  POPC      H18S          -27.3622997749       48.6725613574       -1.0243375480  MEMB      329             0.0000000000
     38820       329  POPC      H18T          -26.3325125394       47.6396026435       -2.0152423719  MEMB      329             0.0000000000
     38821       329  POPC      C33           -22.6773315397       45.9351809884      -12.9937119239  MEMB      329             0.0000000000
     38822       329  POPC      H3X           -23.4543448873       45.4500607088      -12.3650393832  MEMB      329             0.0000000000
     38823       329  POPC      H3Y           -22.7587131935       47.0298321465      -12.8221407560  MEMB      329             0.0000000000
     38824       329  POPC      C34           -21.3008951454       45.3450907034      -12.6661183040  MEMB      329             0.0000000000
     38825       329  POPC      H4X           -20.4478903832       45.6043006302      -13.3290764490  MEMB      329             0.0000000000
     38826       329  POPC      H4Y           -21.4398612980       44.2429563620      -12.6837004602  MEMB      329             0.0000000000
     38827       329  POPC      C35           -20.7806186079       45.9210409148      -11.3559420361  MEMB      329             0.0000000000
     38828       329  POPC      H5X           -20.6809181951       47.0255898675      -11.4219185894  MEMB      329             0.0000000000
     38829       329  POPC      H5Y           -19.7966784851       45.4936094942      -11.0670037371  MEMB      329             0.0000000000
     38830       329  POPC      C36           -21.7806905745       45.6314244446      -10.1843783069  MEMB      329             0.0000000000
     38831       329  POPC      H6X           -21.7924078241       44.5267431747      -10.0666344245  MEMB      329             0.0000000000
     38832       329  POPC      H6Y           -22.7850525798       45.8826766763      -10.5874291853  MEMB      329             0.0000000000
     38833       329  POPC      C37           -21.6159975658       46.4047920183       -8.8644446212  MEMB      329             0.0000000000
     38834       329  POPC      H7X           -21.5650887693       47.5011375072       -9.0369430304  MEMB      329             0.0000000000
     38835       329  POPC      H7Y           -20.6531040534       46.2036024915       -8.3480338216  MEMB      329             0.0000000000
     38836       329  POPC      C38           -22.9270190880       46.1846831824       -7.9475898540  MEMB      329             0.0000000000
     38837       329  POPC      H8X           -23.1863473673       45.1140088576       -7.8036244781  MEMB      329             0.0000000000
     38838       329  POPC      H8Y           -23.7656947775       46.6139439167       -8.5363846877  MEMB      329             0.0000000000
     38839       329  POPC      C39           -22.9022456519       47.0291373463       -6.6524156331  MEMB      329             0.0000000000
     38840       329  POPC      H9X           -23.9967794583       47.1439617716       -6.5003226506  MEMB      329             0.0000000000
     38841       329  POPC      H9Y           -22.5120841127       48.0424420538       -6.8875922592  MEMB      329             0.0000000000
     38842       329  POPC      C310          -22.2492393732       46.3559640269       -5.4787997393  MEMB      329             0.0000000000
     38843       329  POPC      H10X          -21.1448604076       46.2871067873       -5.5784343136  MEMB      329             0.0000000000
     38844       329  POPC      H10Y          -22.7629721262       45.3751437616       -5.3871970761  MEMB      329             0.0000000000
     38845       329  POPC      C311          -22.5119798695       47.1440230157       -4.1783482151  MEMB      329             0.0000000000
     38846       329  POPC      H11X          -22.1448763540       46.4933622443       -3.3560367880  MEMB      329             0.0000000000
     38847       329  POPC      H11Y          -23.6143160141       47.2600614384       -4.1027798078  MEMB      329             0.0000000000
     38848       329  POPC      C312          -21.7345504107       48.3892683211       -4.1646372629  MEMB      329             0.0000000000
     38849       329  POPC      H12X          -21.8842064722       49.0511689468       -5.0443029554  MEMB      329             0.0000000000
     38850       329  POPC      H12Y          -20.6246473409       48.3745639856       -4.1175192123  MEMB      329             0.0000000000
     38851       329  POPC      C313          -22.1581288727       49.2599137601       -3.0099024534  MEMB      329             0.0000000000
     38852       329  POPC      H13X          -23.1991369527       49.6069202977       -3.1837128622  MEMB      329             0.0000000000
     38853       329  POPC      H13Y          -21.5136420377       50.1626867176       -2.9469862807  MEMB      329             0.0000000000
     38854       329  POPC      C314          -22.0565780612       48.4708464504       -1.6599909886  MEMB      329             0.0000000000
     38855       329  POPC      H14X          -21.0930101834       47.9194849707       -1.7030901848  MEMB      329             0.0000000000
     38856       329  POPC      H14Y          -22.8658896727       47.7185923361       -1.7759620409  MEMB      329             0.0000000000
     38857       329  POPC      C315          -22.1265979024       49.3907419423       -0.4186373243  MEMB      329             0.0000000000
     38858       329  POPC      H15X          -22.8037598396       50.2645863843       -0.5289506184  MEMB      329             0.0000000000
     38859       329  POPC      H15Y          -21.1523380230       49.8870850194       -0.2217054755  MEMB      329             0.0000000000
     38860       329  POPC      C316          -22.4297905730       48.5949236511        0.8265459637  MEMB      329             0.0000000000
     38861       329  POPC      H16X          -21.7002993398       47.7855619666        1.0435645094  MEMB      329             0.0000000000
     38862       329  POPC      H16Y          -23.4573593863       48.1934905349        0.6951127638  MEMB      329             0.0000000000
     38863       329  POPC      H16Z          -22.3615024632       49.3351063000        1.6522506515  MEMB      329             0.0000000000
     38864       330  POPE      N              55.1630459221      -11.6937978042      -20.7463184284  MEMB      330             0.0000000000
     38865       330  POPE      HN1            55.5277652638      -12.2049965026      -21.5753273406  MEMB      330             0.0000000000
     38866       330  POPE      HN2            55.5069003075      -12.2098027686      -19.9113913910  MEMB      330             0.0000000000
     38867       330  POPE      HN3            54.1237441670      -11.6905177959      -20.7842787496  MEMB      330             0.0000000000
     38868       330  POPE      C12            55.7685790331      -10.3221741659      -20.7082709246  MEMB      330             0.0000000000
     38869       330  POPE      H12A           55.6929469101       -9.7551960105      -21.6607081491  MEMB      330             0.0000000000
     38870       330  POPE      H12B           56.8200727193      -10.4830937561      -20.3876672300  MEMB      330             0.0000000000
     38871       330  POPE      C11            55.2454192535       -9.4260455429      -19.5142006761  MEMB      330             0.0000000000
     38872       330  POPE      H11A           55.8700137156       -8.5272623015      -19.7049659634  MEMB      330             0.0000000000
     38873       330  POPE      H11B           55.6383977058       -9.7249852226      -18.5189499537  MEMB      330             0.0000000000
     38874       330  POPE      P              53.0276917570       -9.2847465390      -18.2025467317  MEMB      330             0.0000000000
     38875       330  POPE      O13            51.5626025842       -9.1042437531      -18.4978273073  MEMB      330             0.0000000000
     38876       330  POPE      O14            53.6372712017       -8.5047061895      -17.0348953125  MEMB      330             0.0000000000
     38877       330  POPE      O11            53.3179028244      -10.7748004643      -17.7620767377  MEMB      330             0.0000000000
     38878       330  POPE      O12            53.8495343469       -9.1579489548      -19.5338638848  MEMB      330             0.0000000000
     38879       330  POPE      C1             52.6295053270      -11.8989215916      -18.4731131090  MEMB      330             0.0000000000
     38880       330  POPE      HA             53.3342638303      -12.7567298766      -18.4306720284  MEMB      330             0.0000000000
     38881       330  POPE      HB             52.2740071635      -11.6567318675      -19.4974598476  MEMB      330             0.0000000000
     38882       330  POPE      C2             51.3828596480      -12.3489604475      -17.6337733535  MEMB      330             0.0000000000
     38883       330  POPE      HS             50.4732320941      -12.0606620824      -18.2027923336  MEMB      330             0.0000000000
     38884       330  POPE      O21            51.4180766626      -11.9687202046      -16.2478752622  MEMB      330             0.0000000000
     38885       330  POPE      C21            50.5352086194      -11.0485005317      -15.8996846311  MEMB      330             0.0000000000
     38886       330  POPE      O22            49.8792962524      -10.4098431809      -16.6966393573  MEMB      330             0.0000000000
     38887       330  POPE      C22            50.5508455591      -10.9011727872      -14.3252755985  MEMB      330             0.0000000000
     38888       330  POPE      H2R            50.3776814648      -11.8897704816      -13.8488200841  MEMB      330             0.0000000000
     38889       330  POPE      H2S            49.6940479896      -10.2546338726      -14.0385594221  MEMB      330             0.0000000000
     38890       330  POPE      C3             51.3501174863      -13.9513913855      -17.6639586199  MEMB      330             0.0000000000
     38891       330  POPE      HX             51.3961712748      -14.2888524404      -18.7214650462  MEMB      330             0.0000000000
     38892       330  POPE      HY             50.3897210807      -14.3241000358      -17.2479681571  MEMB      330             0.0000000000
     38893       330  POPE      O31            52.4440627943      -14.5021563023      -17.0083844702  MEMB      330             0.0000000000
     38894       330  POPE      C31            52.3222698512      -14.6689198449      -15.6643663113  MEMB      330             0.0000000000
     38895       330  POPE      O32            51.2635444746      -14.6262305088      -15.0180655970  MEMB      330             0.0000000000
     38896       330  POPE      C32            53.6597334053      -15.0672339783      -15.1123388017  MEMB      330             0.0000000000
     38897       330  POPE      H2X            54.5270450772      -14.8561948617      -15.7738169729  MEMB      330             0.0000000000
     38898       330  POPE      H2Y            53.5190086470      -16.1297761029      -14.8198979254  MEMB      330             0.0000000000
     38899       330  POPE      C23            51.7959763693      -10.3938381749      -13.7223619842  MEMB      330             0.0000000000
     38900       330  POPE      H3R            52.6510575656      -10.5071840333      -14.4225830217  MEMB      330             0.0000000000
     38901       330  POPE      H3S            52.1422228546      -10.9777011656      -12.8428515856  MEMB      330             0.0000000000
     38902       330  POPE      C24            51.7264052870       -8.9665471306      -13.2312394756  MEMB      330             0.0000000000
     38903       330  POPE      H4R            50.8325121309       -8.9184704783      -12.5732389378  MEMB      330             0.0000000000
     38904       330  POPE      H4S            51.4452913469       -8.2845162689      -14.0619800591  MEMB      330             0.0000000000
     38905       330  POPE      C25            52.9727932903       -8.4509455922      -12.4991915370  MEMB      330             0.0000000000
     38906       330  POPE      H5R            52.9536484830       -7.3701826698      -12.2424700841  MEMB      330             0.0000000000
     38907       330  POPE      H5S            53.7328701897       -8.6776485926      -13.2771442703  MEMB      330             0.0000000000
     38908       330  POPE      C26            53.2393946756       -9.2263163832      -11.1312732672  MEMB      330             0.0000000000
     38909       330  POPE      H6R            53.1104513542      -10.3241765289      -11.2426184928  MEMB      330             0.0000000000
     38910       330  POPE      H6S            52.3675410105       -8.9029225636      -10.5233185703  MEMB      330             0.0000000000
     38911       330  POPE      C27            54.5599622021       -8.8155644750      -10.3989039051  MEMB      330             0.0000000000
     38912       330  POPE      H7R            54.5979565935       -7.7185427387      -10.2273790492  MEMB      330             0.0000000000
     38913       330  POPE      H7S            55.2297098238       -9.2658845732      -11.1624292065  MEMB      330             0.0000000000
     38914       330  POPE      C28            54.6811536146       -9.4486378556       -9.0092579909  MEMB      330             0.0000000000
     38915       330  POPE      H8R            54.4002800929      -10.5089877593       -9.1855795817  MEMB      330             0.0000000000
     38916       330  POPE      H8S            53.9844973686       -9.0054594319       -8.2658982428  MEMB      330             0.0000000000
     38917       330  POPE      C29            56.0667854649       -9.4138022031       -8.5307831561  MEMB      330             0.0000000000
     38918       330  POPE      H91            56.9077687436       -9.2943159768       -9.2296897633  MEMB      330             0.0000000000
     38919       330  POPE      C210           56.3197226939       -9.4862419337       -7.1736675841  MEMB      330             0.0000000000
     38920       330  POPE      H101           57.3791315768       -9.4199170342       -6.8851298609  MEMB      330             0.0000000000
     38921       330  POPE      C211           55.2368166617       -9.5804165381       -6.1231126314  MEMB      330             0.0000000000
     38922       330  POPE      H11R           55.6158845283      -10.0620616340       -5.1964802728  MEMB      330             0.0000000000
     38923       330  POPE      H11S           54.4009382693      -10.2573404703       -6.4013253869  MEMB      330             0.0000000000
     38924       330  POPE      C212           54.4878124617       -8.1910211994       -5.7502840220  MEMB      330             0.0000000000
     38925       330  POPE      H12R           53.6545258432       -8.1131987341       -6.4809674389  MEMB      330             0.0000000000
     38926       330  POPE      H12S           55.2748348488       -7.4183467213       -5.8840413332  MEMB      330             0.0000000000
     38927       330  POPE      C213           53.9484835856       -8.0214469168       -4.3096689248  MEMB      330             0.0000000000
     38928       330  POPE      H13R           53.4045096256       -8.9699400797       -4.1127577225  MEMB      330             0.0000000000
     38929       330  POPE      H13S           53.2479362877       -7.1634883031       -4.3960475834  MEMB      330             0.0000000000
     38930       330  POPE      C214           54.9673908876       -7.7707564704       -3.2002284030  MEMB      330             0.0000000000
     38931       330  POPE      H14R           55.4241809934       -6.8027625666       -3.4979729195  MEMB      330             0.0000000000
     38932       330  POPE      H14S           55.7695246515       -8.5387237873       -3.2338231936  MEMB      330             0.0000000000
     38933       330  POPE      C215           54.4139519505       -7.4880433221       -1.8012332899  MEMB      330             0.0000000000
     38934       330  POPE      H15R           53.7145977268       -6.6252751442       -1.8304805987  MEMB      330             0.0000000000
     38935       330  POPE      H15S           55.2535149855       -7.2472145905       -1.1146055748  MEMB      330             0.0000000000
     38936       330  POPE      C216           53.5546161917       -8.5888317512       -1.2937337808  MEMB      330             0.0000000000
     38937       330  POPE      H16R           52.6862755535       -8.5844877304       -1.9867595418  MEMB      330             0.0000000000
     38938       330  POPE      H16S           53.1882789217       -8.2890440677       -0.2886231763  MEMB      330             0.0000000000
     38939       330  POPE      C217           54.1300759941      -10.0827602654       -1.2875858193  MEMB      330             0.0000000000
     38940       330  POPE      H17R           55.1807922232      -10.1081785214       -0.9274893179  MEMB      330             0.0000000000
     38941       330  POPE      H17S           54.2459507415      -10.3335193276       -2.3636959254  MEMB      330             0.0000000000
     38942       330  POPE      C218           53.2205551299      -11.0395264897       -0.4508046930  MEMB      330             0.0000000000
     38943       330  POPE      H18R           52.2415532521      -11.2105110762       -0.9474348125  MEMB      330             0.0000000000
     38944       330  POPE      H18S           53.1045208506      -10.8007355679        0.6280066295  MEMB      330             0.0000000000
     38945       330  POPE      H18T           53.7059494792      -12.0360110103       -0.3750948281  MEMB      330             0.0000000000
     38946       330  POPE      C33            53.9750359538      -14.4738379195      -13.7047931798  MEMB      330             0.0000000000
     38947       330  POPE      H3X            54.7052231148      -15.1944980423      -13.2784162993  MEMB      330             0.0000000000
     38948       330  POPE      H3Y            53.1114967098      -14.5912140430      -13.0157039801  MEMB      330             0.0000000000
     38949       330  POPE      C34            54.4536202051      -13.0699569563      -13.7512800319  MEMB      330             0.0000000000
     38950       330  POPE      H4X            53.6734128362      -12.3891517848      -14.1538992547  MEMB      330             0.0000000000
     38951       330  POPE      H4Y            55.2909173551      -13.0607282309      -14.4814646359  MEMB      330             0.0000000000
     38952       330  POPE      C35            54.7194869920      -12.3883325333      -12.4536478218  MEMB      330             0.0000000000
     38953       330  POPE      H5X            53.9168222476      -12.4638272823      -11.6892193881  MEMB      330             0.0000000000
     38954       330  POPE      H5Y            54.8956601453      -11.3143727861      -12.6770184240  MEMB      330             0.0000000000
     38955       330  POPE      C36            56.0998547647      -12.7640279520      -11.7981775392  MEMB      330             0.0000000000
     38956       330  POPE      H6X            56.4482324765      -11.9315298892      -11.1501796980  MEMB      330             0.0000000000
     38957       330  POPE      H6Y            56.8640920182      -12.9576369991      -12.5809787058  MEMB      330             0.0000000000
     38958       330  POPE      C37            56.0518095094      -13.9064120961      -10.7227973678  MEMB      330             0.0000000000
     38959       330  POPE      H7X            57.0921976486      -14.1227389126      -10.3985811497  MEMB      330             0.0000000000
     38960       330  POPE      H7Y            55.8812392263      -14.8732877020      -11.2427767602  MEMB      330             0.0000000000
     38961       330  POPE      C38            55.2167735189      -13.6155050432       -9.4448064368  MEMB      330             0.0000000000
     38962       330  POPE      H8X            54.1377768027      -13.8499631676       -9.5677559269  MEMB      330             0.0000000000
     38963       330  POPE      H8Y            55.3565147708      -12.5500950484       -9.1625035093  MEMB      330             0.0000000000
     38964       330  POPE      C39            55.7314053488      -14.5960665962       -8.4445518494  MEMB      330             0.0000000000
     38965       330  POPE      H9X            56.8215899839      -14.4127505438       -8.3340365704  MEMB      330             0.0000000000
     38966       330  POPE      H9Y            55.4985756865      -15.6048868491       -8.8475320069  MEMB      330             0.0000000000
     38967       330  POPE      C310           54.9536188187      -14.4415636433       -7.1170933643  MEMB      330             0.0000000000
     38968       330  POPE      H10X           55.1165581707      -15.2700749183       -6.3950544508  MEMB      330             0.0000000000
     38969       330  POPE      H10Y           53.8466915466      -14.4914243115       -7.1980049700  MEMB      330             0.0000000000
     38970       330  POPE      C311           55.2386262672      -13.0926248600       -6.4636184356  MEMB      330             0.0000000000
     38971       330  POPE      H11X           54.5458035153      -13.0669458635       -5.5954832759  MEMB      330             0.0000000000
     38972       330  POPE      H11Y           55.1001556812      -12.2823694768       -7.2110359237  MEMB      330             0.0000000000
     38973       330  POPE      C312           56.7465644635      -12.9425537559       -5.9775387841  MEMB      330             0.0000000000
     38974       330  POPE      H12X           56.9610593894      -11.8840740415       -5.7168983985  MEMB      330             0.0000000000
     38975       330  POPE      H12Y           57.4053955197      -13.1084060486       -6.8566041950  MEMB      330             0.0000000000
     38976       330  POPE      C313           57.1375459329      -13.8685897448       -4.7921169090  MEMB      330             0.0000000000
     38977       330  POPE      H13X           58.2217722325      -13.7405151235       -4.5862749596  MEMB      330             0.0000000000
     38978       330  POPE      H13Y           57.1237323613      -14.9500674745       -5.0461566578  MEMB      330             0.0000000000
     38979       330  POPE      C314           56.2775328177      -13.7698153505       -3.4685128053  MEMB      330             0.0000000000
     38980       330  POPE      H14X           56.7698597803      -14.2361236325       -2.5884611019  MEMB      330             0.0000000000
     38981       330  POPE      H14Y           55.3263786268      -14.3431050592       -3.4995850367  MEMB      330             0.0000000000
     38982       330  POPE      C315           56.0019647194      -12.3488492567       -2.9717110415  MEMB      330             0.0000000000
     38983       330  POPE      H15X           55.2074837147      -12.2887491244       -2.1974311511  MEMB      330             0.0000000000
     38984       330  POPE      H15Y           55.4340977545      -11.9504824041       -3.8395551108  MEMB      330             0.0000000000
     38985       330  POPE      C316           57.1437975982      -11.3562008029       -2.7180157292  MEMB      330             0.0000000000
     38986       330  POPE      H16X           57.8758925367      -11.7223020003       -1.9667977527  MEMB      330             0.0000000000
     38987       330  POPE      H16Y           56.7556695706      -10.3989837718       -2.3088545325  MEMB      330             0.0000000000
     38988       330  POPE      H16Z           57.7398024481      -11.1611268900       -3.6351012333  MEMB      330             0.0000000000
     38989       331  POPC      N              40.4556062436      -35.0280930079      -18.5714071772  MEMB      331             0.0000000000
     38990       331  POPC      C12            40.1491846035      -36.4495707013      -18.1245786029  MEMB      331             0.0000000000
     38991       331  POPC      H12A           39.4924194994      -36.3834850466      -17.2697732148  MEMB      331             0.0000000000
     38992       331  POPC      H12B           41.0015225891      -36.9803633684      -17.7268614145  MEMB      331             0.0000000000
     38993       331  POPC      C13            39.1994402585      -34.2157582719      -18.7996826151  MEMB      331             0.0000000000
     38994       331  POPC      H13A           39.5414442107      -33.2068275427      -18.9771428692  MEMB      331             0.0000000000
     38995       331  POPC      H13B           38.7791960125      -34.5752255160      -19.7273561282  MEMB      331             0.0000000000
     38996       331  POPC      H13C           38.5462250280      -34.3810120322      -17.9556440300  MEMB      331             0.0000000000
     38997       331  POPC      C14            41.3485421441      -34.4537081867      -17.4853655925  MEMB      331             0.0000000000
     38998       331  POPC      H14A           41.5778249479      -33.4538188619      -17.8230797592  MEMB      331             0.0000000000
     38999       331  POPC      H14B           40.9161754699      -34.3228729678      -16.5043758379  MEMB      331             0.0000000000
     39000       331  POPC      H14C           42.2388504799      -35.0233658689      -17.2634616801  MEMB      331             0.0000000000
     39001       331  POPC      C15            41.2018914275      -35.1283001860      -19.8558592968  MEMB      331             0.0000000000
     39002       331  POPC      H15A           42.2120891192      -35.4248343570      -19.6150937397  MEMB      331             0.0000000000
     39003       331  POPC      H15B           41.1980992935      -34.1345376270      -20.2787326192  MEMB      331             0.0000000000
     39004       331  POPC      H15C           40.7935164960      -35.8363937344      -20.5617157253  MEMB      331             0.0000000000
     39005       331  POPC      C11            39.3869508588      -37.4684922956      -19.0084905544  MEMB      331             0.0000000000
     39006       331  POPC      H11A           38.6458540534      -36.9608963031      -19.6622817613  MEMB      331             0.0000000000
     39007       331  POPC      H11B           38.8280440432      -38.2094114345      -18.3977672085  MEMB      331             0.0000000000
     39008       331  POPC      P              41.4461179710      -39.0163193671      -19.4802101517  MEMB      331             0.0000000000
     39009       331  POPC      O13            42.7960493923      -38.3733742814      -19.6515780972  MEMB      331             0.0000000000
     39010       331  POPC      O14            41.2039738689      -40.3297536952      -20.1632870022  MEMB      331             0.0000000000
     39011       331  POPC      O12            40.2848544124      -38.0634768973      -19.9483794030  MEMB      331             0.0000000000
     39012       331  POPC      O11            41.2737627410      -39.1623790268      -17.9111615122  MEMB      331             0.0000000000
     39013       331  POPC      C1             42.0592493295      -39.9401127864      -17.1037931490  MEMB      331             0.0000000000
     39014       331  POPC      HA             42.2763177820      -40.9626122210      -17.4802196580  MEMB      331             0.0000000000
     39015       331  POPC      HB             41.4468841715      -40.0912483110      -16.1891959064  MEMB      331             0.0000000000
     39016       331  POPC      C2             43.4070411522      -39.2647305112      -16.6191677674  MEMB      331             0.0000000000
     39017       331  POPC      HS             44.1842349973      -39.2756381315      -17.4130013429  MEMB      331             0.0000000000
     39018       331  POPC      O21            43.8881697150      -39.7715589797      -15.3948076528  MEMB      331             0.0000000000
     39019       331  POPC      C21            45.1493575320      -39.7293577676      -15.1470103122  MEMB      331             0.0000000000
     39020       331  POPC      O22            45.9443901558      -39.2079921356      -15.8651207476  MEMB      331             0.0000000000
     39021       331  POPC      C22            45.4945246260      -40.4137888523      -13.8349843399  MEMB      331             0.0000000000
     39022       331  POPC      H2R            46.5965238705      -40.5548358337      -13.8399215224  MEMB      331             0.0000000000
     39023       331  POPC      H2S            45.0116740376      -41.4143712490      -13.8315794707  MEMB      331             0.0000000000
     39024       331  POPC      C3             43.3346613579      -37.7280869314      -16.4637157355  MEMB      331             0.0000000000
     39025       331  POPC      HX             43.1176260736      -37.3090295172      -17.4695028369  MEMB      331             0.0000000000
     39026       331  POPC      HY             44.3362586394      -37.3326162466      -16.1903535417  MEMB      331             0.0000000000
     39027       331  POPC      O31            42.2991025001      -37.4368921246      -15.4842632323  MEMB      331             0.0000000000
     39028       331  POPC      C31            42.5881431236      -36.9767644421      -14.2652802434  MEMB      331             0.0000000000
     39029       331  POPC      O32            43.6886852989      -36.7938587145      -13.8271697433  MEMB      331             0.0000000000
     39030       331  POPC      C32            41.2952652920      -36.9693129508      -13.3698679883  MEMB      331             0.0000000000
     39031       331  POPC      H2X            40.5160200364      -37.4024318937      -14.0328203938  MEMB      331             0.0000000000
     39032       331  POPC      H2Y            41.0083149056      -35.9219780047      -13.1351978842  MEMB      331             0.0000000000
     39033       331  POPC      C23            45.0788876382      -39.5663074091      -12.6219068223  MEMB      331             0.0000000000
     39034       331  POPC      H3R            43.9712970403      -39.6101850943      -12.6969986898  MEMB      331             0.0000000000
     39035       331  POPC      H3S            45.3922268431      -38.5089625046      -12.7566721660  MEMB      331             0.0000000000
     39036       331  POPC      C24            45.5915335327      -40.0542219279      -11.2938888147  MEMB      331             0.0000000000
     39037       331  POPC      H4R            46.4638025459      -40.6958875265      -11.5423486947  MEMB      331             0.0000000000
     39038       331  POPC      H4S            44.8904401606      -40.6398977254      -10.6616128422  MEMB      331             0.0000000000
     39039       331  POPC      C25            46.0632881889      -38.8653063206      -10.4050532510  MEMB      331             0.0000000000
     39040       331  POPC      H5R            45.2602394335      -38.0998097500      -10.4637769032  MEMB      331             0.0000000000
     39041       331  POPC      H5S            46.9894600363      -38.5576889409      -10.9359939396  MEMB      331             0.0000000000
     39042       331  POPC      C26            46.6009374033      -39.2250138466       -8.9881954896  MEMB      331             0.0000000000
     39043       331  POPC      H6R            47.1138396049      -38.3972566199       -8.4533403119  MEMB      331             0.0000000000
     39044       331  POPC      H6S            47.3220507703      -40.0698486866       -9.0120827866  MEMB      331             0.0000000000
     39045       331  POPC      C27            45.5038610668      -39.7245102380       -8.0590756789  MEMB      331             0.0000000000
     39046       331  POPC      H7R            45.1764752078      -40.7255532526       -8.4127021595  MEMB      331             0.0000000000
     39047       331  POPC      H7S            44.6829284531      -38.9830095938       -7.9562780063  MEMB      331             0.0000000000
     39048       331  POPC      C28            46.0321259382      -40.1838687942       -6.6630448350  MEMB      331             0.0000000000
     39049       331  POPC      H8R            46.9438640217      -39.6263741547       -6.3593117181  MEMB      331             0.0000000000
     39050       331  POPC      H8S            46.4662466557      -41.1989018949       -6.7878214039  MEMB      331             0.0000000000
     39051       331  POPC      C29            44.9710077952      -40.0553988932       -5.5479288333  MEMB      331             0.0000000000
     39052       331  POPC      H91            44.4964346911      -40.9999300724       -5.2435594630  MEMB      331             0.0000000000
     39053       331  POPC      C210           44.4954399737      -38.9258137019       -5.0199375405  MEMB      331             0.0000000000
     39054       331  POPC      H101           43.7321710795      -39.0486937445       -4.2374284757  MEMB      331             0.0000000000
     39055       331  POPC      C211           44.9853466863      -37.5929967926       -5.3403969426  MEMB      331             0.0000000000
     39056       331  POPC      H11R           44.2441372050      -36.7804582690       -5.4975931917  MEMB      331             0.0000000000
     39057       331  POPC      H11S           45.5529822074      -37.6100441011       -6.2952893273  MEMB      331             0.0000000000
     39058       331  POPC      C212           45.9535398991      -37.1467713116       -4.2509921560  MEMB      331             0.0000000000
     39059       331  POPC      H12R           46.4267736570      -36.2333035717       -4.6704536628  MEMB      331             0.0000000000
     39060       331  POPC      H12S           46.7555100521      -37.8472422560       -3.9339662574  MEMB      331             0.0000000000
     39061       331  POPC      C213           45.4990816066      -36.6722445652       -2.8165471131  MEMB      331             0.0000000000
     39062       331  POPC      H13R           44.9306447079      -37.4407539762       -2.2503380209  MEMB      331             0.0000000000
     39063       331  POPC      H13S           44.8657523021      -35.7961928107       -3.0729621411  MEMB      331             0.0000000000
     39064       331  POPC      C214           46.6791625405      -36.2525778471       -1.9552076797  MEMB      331             0.0000000000
     39065       331  POPC      H14R           47.3000446624      -35.5022261580       -2.4898084857  MEMB      331             0.0000000000
     39066       331  POPC      H14S           47.3380247283      -37.1266771312       -1.7650183669  MEMB      331             0.0000000000
     39067       331  POPC      C215           46.2156554745      -35.5934497222       -0.6917924301  MEMB      331             0.0000000000
     39068       331  POPC      H15R           47.1418722487      -35.3243846661       -0.1403894065  MEMB      331             0.0000000000
     39069       331  POPC      H15S           45.6453067489      -36.3477627937       -0.1086671181  MEMB      331             0.0000000000
     39070       331  POPC      C216           45.3206327867      -34.3711305217       -0.9888376506  MEMB      331             0.0000000000
     39071       331  POPC      H16R           45.3694475324      -33.7726363079       -0.0540947537  MEMB      331             0.0000000000
     39072       331  POPC      H16S           44.2624793261      -34.6303243805       -1.2066691697  MEMB      331             0.0000000000
     39073       331  POPC      C217           45.8440495848      -33.4394240604       -2.0503381560  MEMB      331             0.0000000000
     39074       331  POPC      H17R           45.9094674242      -33.8904023490       -3.0635793062  MEMB      331             0.0000000000
     39075       331  POPC      H17S           46.9128837641      -33.2515938051       -1.8123588519  MEMB      331             0.0000000000
     39076       331  POPC      C218           45.0977308768      -32.1449545386       -2.1726593211  MEMB      331             0.0000000000
     39077       331  POPC      H18R           43.9934355311      -32.2312104786       -2.2587554053  MEMB      331             0.0000000000
     39078       331  POPC      H18S           45.4374915149      -31.6003509657       -3.0794616154  MEMB      331             0.0000000000
     39079       331  POPC      H18T           45.2876896707      -31.5750309253       -1.2380878490  MEMB      331             0.0000000000
     39080       331  POPC      C33            41.5306224544      -37.7996633134      -12.0622756903  MEMB      331             0.0000000000
     39081       331  POPC      H3X            42.1797834385      -37.2647542189      -11.3364774517  MEMB      331             0.0000000000
     39082       331  POPC      H3Y            42.1442626192      -38.7051068054      -12.2570545086  MEMB      331             0.0000000000
     39083       331  POPC      C34            40.3149851945      -38.4777374341      -11.3162181027  MEMB      331             0.0000000000
     39084       331  POPC      H4X            39.6962336091      -39.0519033866      -12.0385762165  MEMB      331             0.0000000000
     39085       331  POPC      H4Y            39.6231544747      -37.7279637338      -10.8762966180  MEMB      331             0.0000000000
     39086       331  POPC      C35            40.6113736561      -39.4772717765      -10.2450741343  MEMB      331             0.0000000000
     39087       331  POPC      H5X            41.3302537778      -39.0231310144       -9.5300302410  MEMB      331             0.0000000000
     39088       331  POPC      H5Y            40.9138442276      -40.4627455929      -10.6594098684  MEMB      331             0.0000000000
     39089       331  POPC      C36            39.3944312778      -39.7335086667       -9.2957759215  MEMB      331             0.0000000000
     39090       331  POPC      H6X            39.7087728150      -40.4836552157       -8.5389472931  MEMB      331             0.0000000000
     39091       331  POPC      H6Y            38.5891499017      -40.1539977672       -9.9353324000  MEMB      331             0.0000000000
     39092       331  POPC      C37            38.9258569036      -38.5284388541       -8.3948227113  MEMB      331             0.0000000000
     39093       331  POPC      H7X            38.9142219548      -37.5998517870       -9.0046680874  MEMB      331             0.0000000000
     39094       331  POPC      H7Y            39.7499575236      -38.4308983048       -7.6561307549  MEMB      331             0.0000000000
     39095       331  POPC      C38            37.6009607443      -38.5714240342       -7.6353911546  MEMB      331             0.0000000000
     39096       331  POPC      H8X            37.7145844128      -39.3946976590       -6.8980773877  MEMB      331             0.0000000000
     39097       331  POPC      H8Y            36.8667362654      -39.0293773405       -8.3321793991  MEMB      331             0.0000000000
     39098       331  POPC      C39            37.0677193887      -37.2130508093       -7.1962622475  MEMB      331             0.0000000000
     39099       331  POPC      H9X            36.1021458867      -37.2817536389       -6.6510392050  MEMB      331             0.0000000000
     39100       331  POPC      H9Y            36.7522350246      -36.5206843610       -8.0058422519  MEMB      331             0.0000000000
     39101       331  POPC      C310           37.9664255569      -36.5014713547       -6.2044218729  MEMB      331             0.0000000000
     39102       331  POPC      H10X           37.3500812739      -35.7307001137       -5.6941749898  MEMB      331             0.0000000000
     39103       331  POPC      H10Y           38.7756824654      -35.9762418317       -6.7553835529  MEMB      331             0.0000000000
     39104       331  POPC      C311           38.5958731911      -37.4736072507       -5.1603921669  MEMB      331             0.0000000000
     39105       331  POPC      H11X           39.3846653949      -38.0145604783       -5.7256324555  MEMB      331             0.0000000000
     39106       331  POPC      H11Y           37.7566197770      -38.1623108368       -4.9244620645  MEMB      331             0.0000000000
     39107       331  POPC      C312           39.2028698552      -37.0274107223       -3.8091824775  MEMB      331             0.0000000000
     39108       331  POPC      H12X           38.4659572808      -36.5391418016       -3.1362230982  MEMB      331             0.0000000000
     39109       331  POPC      H12Y           39.8437625028      -36.1762748820       -4.1240558259  MEMB      331             0.0000000000
     39110       331  POPC      C313           39.8572982517      -38.2222065348       -3.0989227692  MEMB      331             0.0000000000
     39111       331  POPC      H13X           40.6419556624      -38.6017384044       -3.7878271314  MEMB      331             0.0000000000
     39112       331  POPC      H13Y           39.2008796577      -39.1134407197       -3.0033341677  MEMB      331             0.0000000000
     39113       331  POPC      C314           40.5155790538      -37.7818848763       -1.8589083198  MEMB      331             0.0000000000
     39114       331  POPC      H14X           39.7589251771      -37.8471462600       -1.0480227820  MEMB      331             0.0000000000
     39115       331  POPC      H14Y           40.9687516359      -36.7855846447       -2.0495428706  MEMB      331             0.0000000000
     39116       331  POPC      C315           41.6316887540      -38.8766371616       -1.4399286226  MEMB      331             0.0000000000
     39117       331  POPC      H15X           41.9214336003      -38.6911973450       -0.3835287225  MEMB      331             0.0000000000
     39118       331  POPC      H15Y           42.5638879108      -38.6536703520       -2.0017216663  MEMB      331             0.0000000000
     39119       331  POPC      C316           41.3192351018      -40.3351709316       -1.5482300197  MEMB      331             0.0000000000
     39120       331  POPC      H16X           41.1162152396      -40.7224496080       -2.5695628318  MEMB      331             0.0000000000
     39121       331  POPC      H16Y           40.3531910364      -40.5325532647       -1.0362540687  MEMB      331             0.0000000000
     39122       331  POPC      H16Z           42.0500230138      -40.9427215044       -0.9727724988  MEMB      331             0.0000000000
     39123       332  POPE      N              26.4244981381      -49.5936011237      -20.4893881954  MEMB      332             0.0000000000
     39124       332  POPE      HN1            26.7130423702      -50.5489201492      -20.7821470263  MEMB      332             0.0000000000
     39125       332  POPE      HN2            26.2749689402      -49.6282240097      -19.4607763178  MEMB      332             0.0000000000
     39126       332  POPE      HN3            25.5508225826      -49.1798718975      -20.8729491171  MEMB      332             0.0000000000
     39127       332  POPE      C12            27.5466540122      -48.6102602042      -20.6607241469  MEMB      332             0.0000000000
     39128       332  POPE      H12A           27.3307219827      -47.7395127508      -20.0053667738  MEMB      332             0.0000000000
     39129       332  POPE      H12B           27.6279774906      -48.2976497661      -21.7237305199  MEMB      332             0.0000000000
     39130       332  POPE      C11            28.8553620962      -49.2722809740      -20.1817593719  MEMB      332             0.0000000000
     39131       332  POPE      H11A           29.5908670884      -48.4451344519      -20.0859361688  MEMB      332             0.0000000000
     39132       332  POPE      H11B           29.2201583707      -50.0354954769      -20.9020012854  MEMB      332             0.0000000000
     39133       332  POPE      P              29.9247452419      -50.4812596829      -18.1511504809  MEMB      332             0.0000000000
     39134       332  POPE      O13            30.9668598546      -49.4652909199      -17.8595853929  MEMB      332             0.0000000000
     39135       332  POPE      O14            30.2682721710      -51.6049668305      -19.0462338622  MEMB      332             0.0000000000
     39136       332  POPE      O11            29.3035797522      -51.0838797104      -16.7820182432  MEMB      332             0.0000000000
     39137       332  POPE      O12            28.6870671610      -49.7721981624      -18.8291402783  MEMB      332             0.0000000000
     39138       332  POPE      C1             28.1042503481      -50.5723470029      -16.3219309474  MEMB      332             0.0000000000
     39139       332  POPE      HA             27.3070444419      -50.9160237264      -17.0152346309  MEMB      332             0.0000000000
     39140       332  POPE      HB             28.1109154113      -49.4677041023      -16.2034378778  MEMB      332             0.0000000000
     39141       332  POPE      C2             27.9060492699      -51.1443933946      -14.8734481239  MEMB      332             0.0000000000
     39142       332  POPE      HS             28.4136853240      -50.5176479817      -14.1093690584  MEMB      332             0.0000000000
     39143       332  POPE      O21            28.3590412900      -52.5456259214      -14.8419066441  MEMB      332             0.0000000000
     39144       332  POPE      C21            29.2126808035      -52.9239762735      -14.0020394536  MEMB      332             0.0000000000
     39145       332  POPE      O22            29.7737248689      -52.2979576167      -13.1742037897  MEMB      332             0.0000000000
     39146       332  POPE      C22            29.4826098250      -54.3910497261      -14.2833879934  MEMB      332             0.0000000000
     39147       332  POPE      H2R            30.2352576899      -54.4077739550      -15.1004330831  MEMB      332             0.0000000000
     39148       332  POPE      H2S            28.4772367838      -54.7585644473      -14.5808422676  MEMB      332             0.0000000000
     39149       332  POPE      C3             26.4153756450      -51.0534509208      -14.4393161388  MEMB      332             0.0000000000
     39150       332  POPE      HX             25.7960272788      -51.5619048008      -15.2088637960  MEMB      332             0.0000000000
     39151       332  POPE      HY             26.0514698155      -50.0038759280      -14.4562241353  MEMB      332             0.0000000000
     39152       332  POPE      O31            26.2254323396      -51.5653365569      -13.1935128912  MEMB      332             0.0000000000
     39153       332  POPE      C31            24.8988187365      -51.8268887281      -12.9159570810  MEMB      332             0.0000000000
     39154       332  POPE      O32            23.9305789423      -51.6216628822      -13.5910019095  MEMB      332             0.0000000000
     39155       332  POPE      C32            24.7604109451      -52.6113735852      -11.6059354548  MEMB      332             0.0000000000
     39156       332  POPE      H2X            23.6813863953      -52.8668143316      -11.5368181612  MEMB      332             0.0000000000
     39157       332  POPE      H2Y            24.9691371704      -51.9913142328      -10.7080036401  MEMB      332             0.0000000000
     39158       332  POPE      C23            30.1239112681      -55.0437144222      -13.1000892999  MEMB      332             0.0000000000
     39159       332  POPE      H3R            30.9827451573      -54.5160955541      -12.6328171996  MEMB      332             0.0000000000
     39160       332  POPE      H3S            30.4715147214      -56.0449383627      -13.4333215693  MEMB      332             0.0000000000
     39161       332  POPE      C24            29.1186721342      -55.2093518264      -11.8991328926  MEMB      332             0.0000000000
     39162       332  POPE      H4R            28.2974251783      -55.9226493851      -12.1251442503  MEMB      332             0.0000000000
     39163       332  POPE      H4S            28.5788102066      -54.2388109617      -11.8687904244  MEMB      332             0.0000000000
     39164       332  POPE      C25            29.7858353649      -55.5437814064      -10.5970084633  MEMB      332             0.0000000000
     39165       332  POPE      H5R            30.4274568288      -54.6511725141      -10.4360982047  MEMB      332             0.0000000000
     39166       332  POPE      H5S            30.4943916278      -56.3389654810      -10.9131595045  MEMB      332             0.0000000000
     39167       332  POPE      C26            28.8672433348      -55.9205107888       -9.4675961527  MEMB      332             0.0000000000
     39168       332  POPE      H6R            28.6891298721      -57.0170240703       -9.4835718214  MEMB      332             0.0000000000
     39169       332  POPE      H6S            27.8834147321      -55.4095758460       -9.5407240601  MEMB      332             0.0000000000
     39170       332  POPE      C27            29.4485990188      -55.5647680877       -8.1618209197  MEMB      332             0.0000000000
     39171       332  POPE      H7R            30.2563545235      -56.2933141732       -7.9358276710  MEMB      332             0.0000000000
     39172       332  POPE      H7S            28.7045468233      -55.7628540954       -7.3609032912  MEMB      332             0.0000000000
     39173       332  POPE      C28            30.0287729585      -54.1253334930       -8.0342359737  MEMB      332             0.0000000000
     39174       332  POPE      H8R            30.9042491186      -54.0065376647       -8.7078463018  MEMB      332             0.0000000000
     39175       332  POPE      H8S            30.4916398926      -53.9513378595       -7.0393486602  MEMB      332             0.0000000000
     39176       332  POPE      C29            29.1048696359      -52.9953521035       -8.3862717251  MEMB      332             0.0000000000
     39177       332  POPE      H91            28.9679642100      -52.8970598270       -9.4732831271  MEMB      332             0.0000000000
     39178       332  POPE      C210           28.5023048742      -52.1737994851       -7.5568865401  MEMB      332             0.0000000000
     39179       332  POPE      H101           27.7815369925      -51.4507320239       -7.9663583468  MEMB      332             0.0000000000
     39180       332  POPE      C211           28.5889865262      -52.1759702735       -6.0659346371  MEMB      332             0.0000000000
     39181       332  POPE      H11R           29.6310751520      -52.3949314181       -5.7490301342  MEMB      332             0.0000000000
     39182       332  POPE      H11S           28.0387858228      -53.0647680453       -5.6895857034  MEMB      332             0.0000000000
     39183       332  POPE      C212           28.3589022301      -50.7762265178       -5.5100336087  MEMB      332             0.0000000000
     39184       332  POPE      H12R           27.2877115351      -50.5280632191       -5.3510163608  MEMB      332             0.0000000000
     39185       332  POPE      H12S           28.4969450151      -49.9686440276       -6.2604174945  MEMB      332             0.0000000000
     39186       332  POPE      C213           28.9687894938      -50.4237250835       -4.1399596812  MEMB      332             0.0000000000
     39187       332  POPE      H13R           28.4366524121      -49.4982652779       -3.8322666285  MEMB      332             0.0000000000
     39188       332  POPE      H13S           30.0529995125      -50.2781824897       -4.3339370166  MEMB      332             0.0000000000
     39189       332  POPE      C214           28.7346122260      -51.5063184176       -3.0600957188  MEMB      332             0.0000000000
     39190       332  POPE      H14R           29.4584291916      -52.3238976901       -3.2649714466  MEMB      332             0.0000000000
     39191       332  POPE      H14S           27.7342695703      -51.9765022030       -3.1721790552  MEMB      332             0.0000000000
     39192       332  POPE      C215           29.0858683090      -51.0209875384       -1.6381988673  MEMB      332             0.0000000000
     39193       332  POPE      H15R           28.6293815266      -50.0447966086       -1.3680284282  MEMB      332             0.0000000000
     39194       332  POPE      H15S           30.1907828422      -51.0504805589       -1.5258822088  MEMB      332             0.0000000000
     39195       332  POPE      C216           28.5740307431      -52.0043892205       -0.6503335231  MEMB      332             0.0000000000
     39196       332  POPE      H16R           29.1927025196      -51.8036088200        0.2503618693  MEMB      332             0.0000000000
     39197       332  POPE      H16S           28.7404446364      -53.0491133163       -0.9897140491  MEMB      332             0.0000000000
     39198       332  POPE      C217           27.0654864977      -51.9042456934       -0.2553813833  MEMB      332             0.0000000000
     39199       332  POPE      H17R           26.3763082764      -52.2946477594       -1.0344442296  MEMB      332             0.0000000000
     39200       332  POPE      H17S           26.7822840557      -50.8303056409       -0.2276305701  MEMB      332             0.0000000000
     39201       332  POPE      C218           26.6853326639      -52.5007236450        1.0676516862  MEMB      332             0.0000000000
     39202       332  POPE      H18R           25.5754251887      -52.4517060623        1.0725437281  MEMB      332             0.0000000000
     39203       332  POPE      H18S           26.9514174352      -52.0874860516        2.0640233725  MEMB      332             0.0000000000
     39204       332  POPE      H18T           26.9286158489      -53.5756672462        1.2077623540  MEMB      332             0.0000000000
     39205       332  POPE      C33            25.6295067406      -53.8866455256      -11.6802160974  MEMB      332             0.0000000000
     39206       332  POPE      H3X            26.6085576984      -53.5433211070      -11.2828392335  MEMB      332             0.0000000000
     39207       332  POPE      H3Y            25.6817341296      -54.2984775561      -12.7107439355  MEMB      332             0.0000000000
     39208       332  POPE      C34            25.0518449050      -54.9227156857      -10.6527220781  MEMB      332             0.0000000000
     39209       332  POPE      H4X            25.7957693313      -55.7271094517      -10.8367007530  MEMB      332             0.0000000000
     39210       332  POPE      H4Y            24.0361657051      -55.2939617528      -10.9074630840  MEMB      332             0.0000000000
     39211       332  POPE      C35            25.2480788131      -54.6211268485       -9.1004794510  MEMB      332             0.0000000000
     39212       332  POPE      H5X            24.6157317045      -53.7262466764       -8.9170464570  MEMB      332             0.0000000000
     39213       332  POPE      H5Y            26.2224952723      -54.1063740986       -8.9595416418  MEMB      332             0.0000000000
     39214       332  POPE      C36            25.2301913793      -55.8932394236       -8.2027714539  MEMB      332             0.0000000000
     39215       332  POPE      H6X            26.0845586879      -56.5814672449       -8.3780425027  MEMB      332             0.0000000000
     39216       332  POPE      H6Y            24.2336596471      -56.3510344180       -8.3807300101  MEMB      332             0.0000000000
     39217       332  POPE      C37            25.1600885015      -55.5105643893       -6.7418093621  MEMB      332             0.0000000000
     39218       332  POPE      H7X            24.3469941954      -54.7938176675       -6.4979390242  MEMB      332             0.0000000000
     39219       332  POPE      H7Y            26.1200605000      -54.9910680437       -6.5346896375  MEMB      332             0.0000000000
     39220       332  POPE      C38            25.0121459215      -56.7893591039       -5.9816615527  MEMB      332             0.0000000000
     39221       332  POPE      H8X            25.9218571743      -57.3888524509       -6.1992715935  MEMB      332             0.0000000000
     39222       332  POPE      H8Y            24.1028201912      -57.3150428124       -6.3437453143  MEMB      332             0.0000000000
     39223       332  POPE      C39            24.8191601300      -56.5360570353       -4.4728999210  MEMB      332             0.0000000000
     39224       332  POPE      H9X            24.5733003120      -57.5596195388       -4.1176613065  MEMB      332             0.0000000000
     39225       332  POPE      H9Y            23.8944498016      -55.9333393582       -4.3465533620  MEMB      332             0.0000000000
     39226       332  POPE      C310           26.0044539538      -55.8868808638       -3.7497383014  MEMB      332             0.0000000000
     39227       332  POPE      H10X           25.7467349056      -55.8951107124       -2.6690749679  MEMB      332             0.0000000000
     39228       332  POPE      H10Y           26.1467078572      -54.8440650527       -4.1055752617  MEMB      332             0.0000000000
     39229       332  POPE      C311           27.4428969684      -56.4855913776       -3.9472989664  MEMB      332             0.0000000000
     39230       332  POPE      H11X           27.5720197798      -56.3355461826       -5.0405209714  MEMB      332             0.0000000000
     39231       332  POPE      H11Y           27.2248627142      -57.5299133697       -3.6371795465  MEMB      332             0.0000000000
     39232       332  POPE      C312           28.6050252860      -55.9884836334       -3.0697298228  MEMB      332             0.0000000000
     39233       332  POPE      H12X           28.8763921831      -54.9304394013       -3.2727628114  MEMB      332             0.0000000000
     39234       332  POPE      H12Y           29.4471014708      -56.6664131361       -3.3259336003  MEMB      332             0.0000000000
     39235       332  POPE      C313           28.4248759396      -56.0044997690       -1.5168952224  MEMB      332             0.0000000000
     39236       332  POPE      H13X           27.6289642498      -55.2759003481       -1.2523412445  MEMB      332             0.0000000000
     39237       332  POPE      H13Y           29.3587288388      -55.4664280761       -1.2472310240  MEMB      332             0.0000000000
     39238       332  POPE      C314           28.1840200169      -57.2757609420       -0.6800973619  MEMB      332             0.0000000000
     39239       332  POPE      H14X           29.0774387692      -57.9161009058       -0.8416179405  MEMB      332             0.0000000000
     39240       332  POPE      H14Y           27.3626849056      -57.8615825909       -1.1454387636  MEMB      332             0.0000000000
     39241       332  POPE      C315           27.8582480655      -56.9154887772        0.7416898762  MEMB      332             0.0000000000
     39242       332  POPE      H15X           27.5897553717      -57.7429515307        1.4327315334  MEMB      332             0.0000000000
     39243       332  POPE      H15Y           26.8876704905      -56.3778083033        0.6851208073  MEMB      332             0.0000000000
     39244       332  POPE      C316           28.9107385227      -55.9535747245        1.3468947292  MEMB      332             0.0000000000
     39245       332  POPE      H16X           28.6772768625      -54.9274516932        0.9906832410  MEMB      332             0.0000000000
     39246       332  POPE      H16Y           29.9378342502      -56.1706893535        0.9832240413  MEMB      332             0.0000000000
     39247       332  POPE      H16Z           28.9005321017      -55.8396781128        2.4519943194  MEMB      332             0.0000000000
     39248       333  POPE      N             -55.0939253177      -16.7463789819      -19.5032567418  MEMB      333             0.0000000000
     39249       333  POPE      HN1           -55.0111761215      -17.3778065912      -20.3254804054  MEMB      333             0.0000000000
     39250       333  POPE      HN2           -55.3065476046      -17.3466967678      -18.6810581857  MEMB      333             0.0000000000
     39251       333  POPE      HN3           -55.7266037990      -15.9430069092      -19.6927588606  MEMB      333             0.0000000000
     39252       333  POPE      C12           -53.7226435250      -16.1977859930      -19.3484303235  MEMB      333             0.0000000000
     39253       333  POPE      H12A          -53.7249985736      -15.2488069113      -18.7707155769  MEMB      333             0.0000000000
     39254       333  POPE      H12B          -53.3209370656      -15.8922321627      -20.3381725891  MEMB      333             0.0000000000
     39255       333  POPE      C11           -52.7812576277      -17.1330474664      -18.5870075896  MEMB      333             0.0000000000
     39256       333  POPE      H11A          -53.2019687300      -17.2724905161      -17.5682443104  MEMB      333             0.0000000000
     39257       333  POPE      H11B          -51.7862079267      -16.6437291443      -18.5179815416  MEMB      333             0.0000000000
     39258       333  POPE      P             -51.4390312615      -19.3165527054      -18.9004607028  MEMB      333             0.0000000000
     39259       333  POPE      O13           -50.6667793351      -18.6202335975      -17.9008265027  MEMB      333             0.0000000000
     39260       333  POPE      O14           -50.8265993256      -19.5905959025      -20.1923039779  MEMB      333             0.0000000000
     39261       333  POPE      O11           -51.9569203019      -20.6266156787      -18.3442047368  MEMB      333             0.0000000000
     39262       333  POPE      O12           -52.7010956676      -18.4008296971      -19.2235094216  MEMB      333             0.0000000000
     39263       333  POPE      C1            -52.9722739558      -21.4222863939      -18.8393688530  MEMB      333             0.0000000000
     39264       333  POPE      HA            -52.5608955415      -22.2932400141      -19.3930190359  MEMB      333             0.0000000000
     39265       333  POPE      HB            -53.7458967113      -20.8369017004      -19.3808053215  MEMB      333             0.0000000000
     39266       333  POPE      C2            -53.6894197308      -22.0870356797      -17.6011816357  MEMB      333             0.0000000000
     39267       333  POPE      HS            -54.4157024770      -22.8118844798      -18.0271253624  MEMB      333             0.0000000000
     39268       333  POPE      O21           -54.2104148371      -21.0632052866      -16.6810768576  MEMB      333             0.0000000000
     39269       333  POPE      C21           -55.3616013499      -21.4305856960      -16.1782618433  MEMB      333             0.0000000000
     39270       333  POPE      O22           -56.1440080112      -22.2838773051      -16.6194089460  MEMB      333             0.0000000000
     39271       333  POPE      C22           -55.7340528064      -20.4267985056      -15.0588928266  MEMB      333             0.0000000000
     39272       333  POPE      H2R           -56.6371045531      -19.8850991974      -15.4129834395  MEMB      333             0.0000000000
     39273       333  POPE      H2S           -54.8699048868      -19.7520720144      -14.8791322001  MEMB      333             0.0000000000
     39274       333  POPE      C3            -52.7566031809      -22.9896691499      -16.7326787720  MEMB      333             0.0000000000
     39275       333  POPE      HX            -52.2434641732      -23.8276818306      -17.2510840778  MEMB      333             0.0000000000
     39276       333  POPE      HY            -53.2626871829      -23.5672493509      -15.9298083597  MEMB      333             0.0000000000
     39277       333  POPE      O31           -51.7185090875      -22.2106809236      -16.0746848570  MEMB      333             0.0000000000
     39278       333  POPE      C31           -51.8886683787      -21.7935049488      -14.8213466024  MEMB      333             0.0000000000
     39279       333  POPE      O32           -52.9543717983      -21.7896201127      -14.1962930049  MEMB      333             0.0000000000
     39280       333  POPE      C32           -50.5139631482      -21.4553466251      -14.2825175247  MEMB      333             0.0000000000
     39281       333  POPE      H2X           -49.6863111062      -21.5550167178      -15.0169414000  MEMB      333             0.0000000000
     39282       333  POPE      H2Y           -50.1416096110      -22.0975753521      -13.4559483440  MEMB      333             0.0000000000
     39283       333  POPE      C23           -56.1657788508      -20.9303633844      -13.6539887036  MEMB      333             0.0000000000
     39284       333  POPE      H3R           -55.4618607444      -21.7766636187      -13.5036679027  MEMB      333             0.0000000000
     39285       333  POPE      H3S           -57.1584393248      -21.4286271644      -13.6800620602  MEMB      333             0.0000000000
     39286       333  POPE      C24           -55.9404930730      -19.8207630501      -12.5927453394  MEMB      333             0.0000000000
     39287       333  POPE      H4R           -56.6804379590      -19.0288169103      -12.8369247552  MEMB      333             0.0000000000
     39288       333  POPE      H4S           -54.9468420740      -19.3825791641      -12.8272100169  MEMB      333             0.0000000000
     39289       333  POPE      C25           -56.1638979184      -20.2421289628      -11.1510945554  MEMB      333             0.0000000000
     39290       333  POPE      H5R           -57.2017253950      -20.6377175113      -11.1783955356  MEMB      333             0.0000000000
     39291       333  POPE      H5S           -56.1881477178      -19.3024113290      -10.5589254668  MEMB      333             0.0000000000
     39292       333  POPE      C26           -55.0130773644      -21.0991163837      -10.5661452842  MEMB      333             0.0000000000
     39293       333  POPE      H6R           -54.1422959117      -20.4120911254      -10.6298385716  MEMB      333             0.0000000000
     39294       333  POPE      H6S           -54.7670333766      -21.8707684931      -11.3266295969  MEMB      333             0.0000000000
     39295       333  POPE      C27           -55.1420724779      -21.6465801535       -9.2072137624  MEMB      333             0.0000000000
     39296       333  POPE      H7R           -56.0909124509      -22.2054370999       -9.0598960217  MEMB      333             0.0000000000
     39297       333  POPE      H7S           -55.0911019443      -20.7972467228       -8.4928223077  MEMB      333             0.0000000000
     39298       333  POPE      C28           -54.0041744301      -22.6954656127       -8.8581291294  MEMB      333             0.0000000000
     39299       333  POPE      H8R           -54.4180640795      -23.6469858851       -9.2551502194  MEMB      333             0.0000000000
     39300       333  POPE      H8S           -53.9917367744      -22.8435451451       -7.7571117090  MEMB      333             0.0000000000
     39301       333  POPE      C29           -52.6483203338      -22.6423358955       -9.4627341284  MEMB      333             0.0000000000
     39302       333  POPE      H91           -52.4646086150      -23.3325109730      -10.2993388848  MEMB      333             0.0000000000
     39303       333  POPE      C210          -51.6784774116      -21.7318133697       -9.1109391536  MEMB      333             0.0000000000
     39304       333  POPE      H101          -50.6791250705      -21.7767338022       -9.5684082073  MEMB      333             0.0000000000
     39305       333  POPE      C211          -51.8713280452      -20.6234688185       -8.0754368544  MEMB      333             0.0000000000
     39306       333  POPE      H11R          -52.9062925637      -20.6840250732       -7.6760594025  MEMB      333             0.0000000000
     39307       333  POPE      H11S          -51.8945910117      -19.5785821989       -8.4522551984  MEMB      333             0.0000000000
     39308       333  POPE      C212          -50.9647433475      -20.6297319754       -6.8363868616  MEMB      333             0.0000000000
     39309       333  POPE      H12R          -49.9931255539      -20.1302043011       -7.0382586315  MEMB      333             0.0000000000
     39310       333  POPE      H12S          -50.8040991408      -21.6528503229       -6.4342139296  MEMB      333             0.0000000000
     39311       333  POPE      C213          -51.6773733802      -19.7713306398       -5.7824504643  MEMB      333             0.0000000000
     39312       333  POPE      H13R          -52.7360686451      -20.1034197671       -5.7258587995  MEMB      333             0.0000000000
     39313       333  POPE      H13S          -51.6931418248      -18.7204965422       -6.1427560212  MEMB      333             0.0000000000
     39314       333  POPE      C214          -51.0968454808      -19.8411863189       -4.3429969460  MEMB      333             0.0000000000
     39315       333  POPE      H14R          -50.0952200571      -19.3689047997       -4.4325343609  MEMB      333             0.0000000000
     39316       333  POPE      H14S          -50.8271730367      -20.8830176952       -4.0669794625  MEMB      333             0.0000000000
     39317       333  POPE      C215          -51.8038199966      -19.2157050008       -3.1755942245  MEMB      333             0.0000000000
     39318       333  POPE      H15R          -52.1244125529      -18.1789158604       -3.4135227608  MEMB      333             0.0000000000
     39319       333  POPE      H15S          -51.0858210275      -19.1002352630       -2.3356745924  MEMB      333             0.0000000000
     39320       333  POPE      C216          -53.0687715747      -20.0371370914       -2.7218453597  MEMB      333             0.0000000000
     39321       333  POPE      H16R          -52.7977565391      -21.1020031135       -2.5577343542  MEMB      333             0.0000000000
     39322       333  POPE      H16S          -53.7494601838      -19.8922458957       -3.5878651173  MEMB      333             0.0000000000
     39323       333  POPE      C217          -53.7693209004      -19.5192657446       -1.4542383546  MEMB      333             0.0000000000
     39324       333  POPE      H17R          -53.7598341771      -18.4086349890       -1.4272145712  MEMB      333             0.0000000000
     39325       333  POPE      H17S          -53.2424413666      -20.0049557692       -0.6052244704  MEMB      333             0.0000000000
     39326       333  POPE      C218          -55.2759697638      -19.7005028528       -1.5107127996  MEMB      333             0.0000000000
     39327       333  POPE      H18R          -55.5974676399      -20.7623794454       -1.4525873532  MEMB      333             0.0000000000
     39328       333  POPE      H18S          -55.5313051145      -19.2534924354       -2.4952462401  MEMB      333             0.0000000000
     39329       333  POPE      H18T          -55.7739852326      -19.1281979564       -0.6990663411  MEMB      333             0.0000000000
     39330       333  POPE      C33           -50.5984722190      -19.9610400363      -13.8835006104  MEMB      333             0.0000000000
     39331       333  POPE      H3X           -51.2004411576      -19.2953606887      -14.5383483598  MEMB      333             0.0000000000
     39332       333  POPE      H3Y           -49.6086826102      -19.5028425077      -14.0949067850  MEMB      333             0.0000000000
     39333       333  POPE      C34           -50.9632390467      -19.7920639018      -12.4752147884  MEMB      333             0.0000000000
     39334       333  POPE      H4X           -50.2135909732      -20.3603558573      -11.8841200363  MEMB      333             0.0000000000
     39335       333  POPE      H4Y           -51.9151473041      -20.3106242317      -12.2317264727  MEMB      333             0.0000000000
     39336       333  POPE      C35           -51.1253047910      -18.3697787877      -11.9172100073  MEMB      333             0.0000000000
     39337       333  POPE      H5X           -50.3627760497      -17.7816947580      -12.4713110310  MEMB      333             0.0000000000
     39338       333  POPE      H5Y           -50.7877217783      -18.4370884800      -10.8608819564  MEMB      333             0.0000000000
     39339       333  POPE      C36           -52.6145678555      -17.8164069552      -11.9354255802  MEMB      333             0.0000000000
     39340       333  POPE      H6X           -53.3365644440      -18.5471263519      -11.5122339326  MEMB      333             0.0000000000
     39341       333  POPE      H6Y           -53.0755617961      -17.5846404723      -12.9193411396  MEMB      333             0.0000000000
     39342       333  POPE      C37           -52.7420687788      -16.4408081471      -11.2367663145  MEMB      333             0.0000000000
     39343       333  POPE      H7X           -53.8018918405      -16.1129731169      -11.1765999762  MEMB      333             0.0000000000
     39344       333  POPE      H7Y           -52.3054403345      -15.6776801590      -11.9159663366  MEMB      333             0.0000000000
     39345       333  POPE      C38           -52.1553502294      -16.3012703765       -9.8615800199  MEMB      333             0.0000000000
     39346       333  POPE      H8X           -51.0569820788      -16.4548355234       -9.9273546581  MEMB      333             0.0000000000
     39347       333  POPE      H8Y           -52.5753635898      -17.0545496626       -9.1612369392  MEMB      333             0.0000000000
     39348       333  POPE      C39           -52.5264025236      -14.9112120782       -9.2833359606  MEMB      333             0.0000000000
     39349       333  POPE      H9X           -53.5682347770      -14.6740944289       -9.5877729101  MEMB      333             0.0000000000
     39350       333  POPE      H9Y           -51.8123398509      -14.2320494448       -9.7963406287  MEMB      333             0.0000000000
     39351       333  POPE      C310          -52.2640384990      -15.0247609898       -7.7998806643  MEMB      333             0.0000000000
     39352       333  POPE      H10X          -52.0965587120      -14.0284984997       -7.3375677717  MEMB      333             0.0000000000
     39353       333  POPE      H10Y          -51.4512872586      -15.7462800136       -7.5693015308  MEMB      333             0.0000000000
     39354       333  POPE      C311          -53.5211779197      -15.4637927145       -6.9052269956  MEMB      333             0.0000000000
     39355       333  POPE      H11X          -53.9494944703      -16.3723730752       -7.3799349313  MEMB      333             0.0000000000
     39356       333  POPE      H11Y          -54.2808133396      -14.6901276165       -7.1475436159  MEMB      333             0.0000000000
     39357       333  POPE      C312          -53.3187559287      -15.6524437327       -5.4790478041  MEMB      333             0.0000000000
     39358       333  POPE      H12X          -52.3926585407      -16.2311105618       -5.2745745302  MEMB      333             0.0000000000
     39359       333  POPE      H12Y          -54.1800840621      -16.1137278192       -4.9502270609  MEMB      333             0.0000000000
     39360       333  POPE      C313          -53.3126453210      -14.2654572691       -4.7463474675  MEMB      333             0.0000000000
     39361       333  POPE      H13X          -54.3440119689      -13.9054439544       -4.9488178371  MEMB      333             0.0000000000
     39362       333  POPE      H13Y          -52.6046664959      -13.4919115811       -5.1133818535  MEMB      333             0.0000000000
     39363       333  POPE      C314          -53.0898117381      -14.2452261048       -3.1708688227  MEMB      333             0.0000000000
     39364       333  POPE      H14X          -52.8964310445      -13.1621902886       -3.0160831967  MEMB      333             0.0000000000
     39365       333  POPE      H14Y          -52.1755432130      -14.8059556779       -2.8810126205  MEMB      333             0.0000000000
     39366       333  POPE      C315          -54.3195220703      -14.7033293779       -2.3627235666  MEMB      333             0.0000000000
     39367       333  POPE      H15X          -54.5351529502      -15.7041681180       -2.7941684999  MEMB      333             0.0000000000
     39368       333  POPE      H15Y          -54.9824573328      -13.8131803190       -2.4124509569  MEMB      333             0.0000000000
     39369       333  POPE      C316          -53.9986667243      -14.7960608959       -0.8446286975  MEMB      333             0.0000000000
     39370       333  POPE      H16X          -53.1222260067      -15.4746076616       -0.7688214889  MEMB      333             0.0000000000
     39371       333  POPE      H16Y          -54.8612610488      -15.3286990109       -0.3901519918  MEMB      333             0.0000000000
     39372       333  POPE      H16Z          -53.7428565440      -13.8077495587       -0.4063102449  MEMB      333             0.0000000000
     39373       334  POPE      N             -49.5840935323       41.6130217898      -20.8313075726  MEMB      334             0.0000000000
     39374       334  POPE      HN1           -50.4110264600       41.3556751485      -21.4071153617  MEMB      334             0.0000000000
     39375       334  POPE      HN2           -49.2850385482       42.5870163776      -21.0398754294  MEMB      334             0.0000000000
     39376       334  POPE      HN3           -48.7713195001       40.9680281396      -20.9018873097  MEMB      334             0.0000000000
     39377       334  POPE      C12           -50.0441768058       41.7285024088      -19.4166058060  MEMB      334             0.0000000000
     39378       334  POPE      H12A          -50.6532456203       42.6576624897      -19.4208192361  MEMB      334             0.0000000000
     39379       334  POPE      H12B          -49.1419009832       41.7917520275      -18.7714555123  MEMB      334             0.0000000000
     39380       334  POPE      C11           -50.8755890737       40.4787995312      -18.9634548673  MEMB      334             0.0000000000
     39381       334  POPE      H11A          -51.9032723912       40.3817189337      -19.3742631355  MEMB      334             0.0000000000
     39382       334  POPE      H11B          -50.9409259890       40.5228425596      -17.8552525611  MEMB      334             0.0000000000
     39383       334  POPE      P             -48.9261111319       38.7989703748      -18.5806649418  MEMB      334             0.0000000000
     39384       334  POPE      O13           -48.1743800298       39.8405152759      -17.9368870150  MEMB      334             0.0000000000
     39385       334  POPE      O14           -48.1370319389       37.9493863716      -19.5075229507  MEMB      334             0.0000000000
     39386       334  POPE      O11           -49.4293536867       37.7901537743      -17.4485213365  MEMB      334             0.0000000000
     39387       334  POPE      O12           -50.2139342007       39.3296160302      -19.3150355129  MEMB      334             0.0000000000
     39388       334  POPE      C1            -50.3677073257       36.7955855172      -17.8170336228  MEMB      334             0.0000000000
     39389       334  POPE      HA            -49.8090175575       35.9767058814      -18.3186537477  MEMB      334             0.0000000000
     39390       334  POPE      HB            -51.0553316667       37.1378852788      -18.6197319940  MEMB      334             0.0000000000
     39391       334  POPE      C2            -51.1164274669       36.2042943750      -16.6206918358  MEMB      334             0.0000000000
     39392       334  POPE      HS            -51.8466401387       35.4611736852      -17.0065442658  MEMB      334             0.0000000000
     39393       334  POPE      O21           -51.7664439159       37.2466786255      -15.8810263101  MEMB      334             0.0000000000
     39394       334  POPE      C21           -52.7090381480       38.0311940683      -16.4843235988  MEMB      334             0.0000000000
     39395       334  POPE      O22           -53.1748980272       37.7597858893      -17.5919061194  MEMB      334             0.0000000000
     39396       334  POPE      C22           -53.2113506788       39.2265872377      -15.6671006247  MEMB      334             0.0000000000
     39397       334  POPE      H2R           -54.2865327304       39.1066968768      -15.4142549730  MEMB      334             0.0000000000
     39398       334  POPE      H2S           -53.1857810068       40.1725584579      -16.2491708439  MEMB      334             0.0000000000
     39399       334  POPE      C3            -50.2264710424       35.3950253513      -15.6230382930  MEMB      334             0.0000000000
     39400       334  POPE      HX            -49.4413401448       36.0458635641      -15.1822432266  MEMB      334             0.0000000000
     39401       334  POPE      HY            -49.7199235544       34.5435239226      -16.1257072732  MEMB      334             0.0000000000
     39402       334  POPE      O31           -51.0909644444       34.7945906757      -14.6187338110  MEMB      334             0.0000000000
     39403       334  POPE      C31           -51.0199787337       35.4424885849      -13.4305489097  MEMB      334             0.0000000000
     39404       334  POPE      O32           -50.4361973802       36.4811507615      -13.2378467753  MEMB      334             0.0000000000
     39405       334  POPE      C32           -51.7065251620       34.5896043031      -12.3412485524  MEMB      334             0.0000000000
     39406       334  POPE      H2X           -51.0853921654       33.6876787994      -12.1540456472  MEMB      334             0.0000000000
     39407       334  POPE      H2Y           -52.6716606043       34.2580564167      -12.7804654054  MEMB      334             0.0000000000
     39408       334  POPE      C23           -52.4572388056       39.3121517594      -14.3250241509  MEMB      334             0.0000000000
     39409       334  POPE      H3R           -51.3697070820       39.4226709622      -14.5234708591  MEMB      334             0.0000000000
     39410       334  POPE      H3S           -52.5107435080       38.3266294095      -13.8149221025  MEMB      334             0.0000000000
     39411       334  POPE      C24           -52.9346987238       40.2920852760      -13.2331568974  MEMB      334             0.0000000000
     39412       334  POPE      H4R           -53.8975577234       39.8789557000      -12.8636333275  MEMB      334             0.0000000000
     39413       334  POPE      H4S           -53.0178101011       41.2179712795      -13.8415549834  MEMB      334             0.0000000000
     39414       334  POPE      C25           -51.9855723274       40.6425464921      -12.0526784115  MEMB      334             0.0000000000
     39415       334  POPE      H5R           -52.3787925724       41.5342782423      -11.5192800856  MEMB      334             0.0000000000
     39416       334  POPE      H5S           -50.9985013127       40.8713836365      -12.5083592905  MEMB      334             0.0000000000
     39417       334  POPE      C26           -51.8272482186       39.5053630351      -11.0351964061  MEMB      334             0.0000000000
     39418       334  POPE      H6R           -51.4934257548       38.5762616894      -11.5447590099  MEMB      334             0.0000000000
     39419       334  POPE      H6S           -52.8067165128       39.3575011861      -10.5321070119  MEMB      334             0.0000000000
     39420       334  POPE      C27           -50.7504256372       39.8577753402       -9.9180645452  MEMB      334             0.0000000000
     39421       334  POPE      H7R           -50.8615698535       38.9980088711       -9.2232484751  MEMB      334             0.0000000000
     39422       334  POPE      H7S           -51.0568061963       40.6894470700       -9.2481589038  MEMB      334             0.0000000000
     39423       334  POPE      C28           -49.2476797046       40.0857542144      -10.2730698706  MEMB      334             0.0000000000
     39424       334  POPE      H8R           -49.0496650717       41.1250231638      -10.6122314604  MEMB      334             0.0000000000
     39425       334  POPE      H8S           -48.9422949249       39.4189010966      -11.1075561978  MEMB      334             0.0000000000
     39426       334  POPE      C29           -48.3615826275       39.9183876602       -9.0134065806  MEMB      334             0.0000000000
     39427       334  POPE      H91           -48.5393971501       40.7204863210       -8.2819562459  MEMB      334             0.0000000000
     39428       334  POPE      C210          -47.5122734740       38.9650375511       -8.6761341133  MEMB      334             0.0000000000
     39429       334  POPE      H101          -47.0541828429       39.1512238134       -7.6935414204  MEMB      334             0.0000000000
     39430       334  POPE      C211          -47.2531058805       37.8111360820       -9.6070232130  MEMB      334             0.0000000000
     39431       334  POPE      H11R          -46.2152867384       37.9362601611       -9.9833160476  MEMB      334             0.0000000000
     39432       334  POPE      H11S          -47.9006029183       37.7862332455      -10.5094907559  MEMB      334             0.0000000000
     39433       334  POPE      C212          -47.4892804341       36.4068250794       -8.9790890712  MEMB      334             0.0000000000
     39434       334  POPE      H12R          -47.3765986417       35.6796379570       -9.8114487875  MEMB      334             0.0000000000
     39435       334  POPE      H12S          -48.5376073841       36.3047612460       -8.6256568011  MEMB      334             0.0000000000
     39436       334  POPE      C213          -46.6120765796       36.0175832193       -7.7683707999  MEMB      334             0.0000000000
     39437       334  POPE      H13R          -46.6912366680       36.6976902053       -6.8934365974  MEMB      334             0.0000000000
     39438       334  POPE      H13S          -45.5567870396       35.8373739393       -8.0653714989  MEMB      334             0.0000000000
     39439       334  POPE      C214          -47.0903875649       34.6321552677       -7.1245442055  MEMB      334             0.0000000000
     39440       334  POPE      H14R          -46.8100327751       33.8093863037       -7.8164790643  MEMB      334             0.0000000000
     39441       334  POPE      H14S          -48.1893022511       34.6420597468       -6.9614203965  MEMB      334             0.0000000000
     39442       334  POPE      C215          -46.4197558008       34.2425753748       -5.7137248726  MEMB      334             0.0000000000
     39443       334  POPE      H15R          -45.3471706227       34.5188787353       -5.8005495390  MEMB      334             0.0000000000
     39444       334  POPE      H15S          -46.5744531268       33.1574791673       -5.5321877532  MEMB      334             0.0000000000
     39445       334  POPE      C216          -47.1906560955       35.0099678741       -4.4694075050  MEMB      334             0.0000000000
     39446       334  POPE      H16R          -48.1208516553       34.4067603622       -4.3973118750  MEMB      334             0.0000000000
     39447       334  POPE      H16S          -47.5279528033       36.0128654615       -4.8081528538  MEMB      334             0.0000000000
     39448       334  POPE      C217          -46.3666637841       35.1480292376       -3.2449428568  MEMB      334             0.0000000000
     39449       334  POPE      H17R          -45.7006956232       36.0117778093       -3.4564739257  MEMB      334             0.0000000000
     39450       334  POPE      H17S          -45.6432855353       34.3288476391       -3.0449771838  MEMB      334             0.0000000000
     39451       334  POPE      C218          -47.1663228706       35.3496314072       -2.0479610125  MEMB      334             0.0000000000
     39452       334  POPE      H18R          -46.5420658854       35.7425080842       -1.2171352615  MEMB      334             0.0000000000
     39453       334  POPE      H18S          -47.8137682977       34.5126052643       -1.7095495895  MEMB      334             0.0000000000
     39454       334  POPE      H18T          -47.7124479798       36.2891433622       -2.2790134419  MEMB      334             0.0000000000
     39455       334  POPE      C33           -51.9086900565       35.4406328290      -11.0797271398  MEMB      334             0.0000000000
     39456       334  POPE      H3X           -52.5081061422       36.3319264257      -11.3636595300  MEMB      334             0.0000000000
     39457       334  POPE      H3Y           -50.9342414914       35.6765759543      -10.6010813468  MEMB      334             0.0000000000
     39458       334  POPE      C34           -52.7726571216       34.7214818832      -10.0847460041  MEMB      334             0.0000000000
     39459       334  POPE      H4X           -52.3737454679       33.7146695915       -9.8367145707  MEMB      334             0.0000000000
     39460       334  POPE      H4Y           -53.7519296302       34.5621325475      -10.5847001725  MEMB      334             0.0000000000
     39461       334  POPE      C35           -53.0425624060       35.6308530624       -8.8050863869  MEMB      334             0.0000000000
     39462       334  POPE      H5X           -53.7816694912       35.2248289192       -8.0817704224  MEMB      334             0.0000000000
     39463       334  POPE      H5Y           -53.4916023647       36.5586161470       -9.2197440010  MEMB      334             0.0000000000
     39464       334  POPE      C36           -51.8021071623       36.0054919462       -8.0561735034  MEMB      334             0.0000000000
     39465       334  POPE      H6X           -51.1258369333       36.6529084585       -8.6543632463  MEMB      334             0.0000000000
     39466       334  POPE      H6Y           -51.2057986069       35.1456751964       -7.6827405865  MEMB      334             0.0000000000
     39467       334  POPE      C37           -52.1357004426       36.9525371534       -6.9175685084  MEMB      334             0.0000000000
     39468       334  POPE      H7X           -52.7045260644       36.3434233348       -6.1828993654  MEMB      334             0.0000000000
     39469       334  POPE      H7Y           -52.8465862383       37.7464918921       -7.2315717678  MEMB      334             0.0000000000
     39470       334  POPE      C38           -50.9232379392       37.6508890956       -6.3598302834  MEMB      334             0.0000000000
     39471       334  POPE      H8X           -50.4372351177       38.2228059132       -7.1789966592  MEMB      334             0.0000000000
     39472       334  POPE      H8Y           -50.2405039496       36.8306533838       -6.0509483324  MEMB      334             0.0000000000
     39473       334  POPE      C39           -51.1449348807       38.6293428381       -5.2059724044  MEMB      334             0.0000000000
     39474       334  POPE      H9X           -51.5625078109       38.1614955502       -4.2888724592  MEMB      334             0.0000000000
     39475       334  POPE      H9Y           -51.8411666159       39.4320684094       -5.5303399232  MEMB      334             0.0000000000
     39476       334  POPE      C310          -49.8882497268       39.4615118245       -4.8026159983  MEMB      334             0.0000000000
     39477       334  POPE      H10X          -50.0975679664       40.4504852650       -4.3417059001  MEMB      334             0.0000000000
     39478       334  POPE      H10Y          -49.4098801501       39.7031035570       -5.7758156277  MEMB      334             0.0000000000
     39479       334  POPE      C311          -48.9843368475       38.7877247366       -3.8483485117  MEMB      334             0.0000000000
     39480       334  POPE      H11X          -48.7750718243       37.7614025194       -4.2187427389  MEMB      334             0.0000000000
     39481       334  POPE      H11Y          -49.4178100085       38.7622661041       -2.8257172472  MEMB      334             0.0000000000
     39482       334  POPE      C312          -47.5766362265       39.4812864664       -3.5791795166  MEMB      334             0.0000000000
     39483       334  POPE      H12X          -47.6854724937       40.5836001496       -3.4932681241  MEMB      334             0.0000000000
     39484       334  POPE      H12Y          -46.9228168682       39.2601610780       -4.4497795567  MEMB      334             0.0000000000
     39485       334  POPE      C313          -46.8181995956       38.9771250890       -2.2915146268  MEMB      334             0.0000000000
     39486       334  POPE      H13X          -46.6526907929       37.8789909075       -2.2594299404  MEMB      334             0.0000000000
     39487       334  POPE      H13Y          -47.4937959497       39.0936373141       -1.4172628845  MEMB      334             0.0000000000
     39488       334  POPE      C314          -45.5291694256       39.8173112867       -2.1045942160  MEMB      334             0.0000000000
     39489       334  POPE      H14X          -45.7296346175       40.9021887251       -1.9735380316  MEMB      334             0.0000000000
     39490       334  POPE      H14Y          -44.9730793781       39.7496404220       -3.0640240515  MEMB      334             0.0000000000
     39491       334  POPE      C315          -44.6801627959       39.2770383140       -0.9758385758  MEMB      334             0.0000000000
     39492       334  POPE      H15X          -43.6968556147       39.7834771461       -1.0804695492  MEMB      334             0.0000000000
     39493       334  POPE      H15Y          -44.4941876860       38.1863633658       -1.0766486828  MEMB      334             0.0000000000
     39494       334  POPE      C316          -45.3156279870       39.6257258122        0.3442061296  MEMB      334             0.0000000000
     39495       334  POPE      H16X          -45.2906425604       40.7138756521        0.5669754491  MEMB      334             0.0000000000
     39496       334  POPE      H16Y          -44.8428587501       39.0668766274        1.1799667369  MEMB      334             0.0000000000
     39497       334  POPE      H16Z          -46.3951630307       39.4584485809        0.5465510741  MEMB      334             0.0000000000
     39498       335  POPE      N             -32.8849419320       50.9628858784      -18.7687961580  MEMB      335             0.0000000000
     39499       335  POPE      HN1           -32.2380552350       51.7744144789      -18.8363143622  MEMB      335             0.0000000000
     39500       335  POPE      HN2           -33.6670725443       51.0550348318      -19.4480459510  MEMB      335             0.0000000000
     39501       335  POPE      HN3           -33.1910188722       50.7703690513      -17.7936785515  MEMB      335             0.0000000000
     39502       335  POPE      C12           -32.0759604463       49.8054181841      -19.1877445600  MEMB      335             0.0000000000
     39503       335  POPE      H12A          -32.0686004427       49.7284259564      -20.2960490935  MEMB      335             0.0000000000
     39504       335  POPE      H12B          -32.6391483820       48.9623404293      -18.7334758839  MEMB      335             0.0000000000
     39505       335  POPE      C11           -30.7595874308       49.7256785372      -18.4127136396  MEMB      335             0.0000000000
     39506       335  POPE      H11A          -30.4902106624       48.6880443121      -18.1210423072  MEMB      335             0.0000000000
     39507       335  POPE      H11B          -30.7583275172       50.2823458878      -17.4512350613  MEMB      335             0.0000000000
     39508       335  POPE      P             -28.7457813137       51.3932825374      -19.1738677347  MEMB      335             0.0000000000
     39509       335  POPE      O13           -28.6544148146       52.0829434127      -20.4867089649  MEMB      335             0.0000000000
     39510       335  POPE      O14           -27.5642165291       50.8673639837      -18.4234503707  MEMB      335             0.0000000000
     39511       335  POPE      O11           -29.5099322518       52.3204931814      -18.1773406306  MEMB      335             0.0000000000
     39512       335  POPE      O12           -29.7992012830       50.2243158828      -19.3693779384  MEMB      335             0.0000000000
     39513       335  POPE      C1            -28.9599052112       53.6081016681      -17.8350684394  MEMB      335             0.0000000000
     39514       335  POPE      HA            -29.6629752622       54.3782322906      -18.2183599559  MEMB      335             0.0000000000
     39515       335  POPE      HB            -27.9950827729       53.8211412302      -18.3430574706  MEMB      335             0.0000000000
     39516       335  POPE      C2            -28.9104531663       53.9053491604      -16.3449596364  MEMB      335             0.0000000000
     39517       335  POPE      HS            -28.2461386569       54.7641737420      -16.1095282444  MEMB      335             0.0000000000
     39518       335  POPE      O21           -28.3149789565       52.7599611500      -15.6263291754  MEMB      335             0.0000000000
     39519       335  POPE      C21           -27.0125513429       52.4635873880      -15.9224108745  MEMB      335             0.0000000000
     39520       335  POPE      O22           -26.3008100808       53.0108586227      -16.7679210690  MEMB      335             0.0000000000
     39521       335  POPE      C22           -26.6309410519       51.2431750130      -14.9558519123  MEMB      335             0.0000000000
     39522       335  POPE      H2R           -26.1626814512       50.4868468787      -15.6214506194  MEMB      335             0.0000000000
     39523       335  POPE      H2S           -27.5760521831       50.8776602945      -14.5003466956  MEMB      335             0.0000000000
     39524       335  POPE      C3            -30.3145566246       54.2326817112      -15.7667943676  MEMB      335             0.0000000000
     39525       335  POPE      HX            -30.9989987633       53.4852155370      -16.2219361006  MEMB      335             0.0000000000
     39526       335  POPE      HY            -30.6435012394       55.2762279904      -15.9594811588  MEMB      335             0.0000000000
     39527       335  POPE      O31           -30.3521014374       53.9243341540      -14.3693469454  MEMB      335             0.0000000000
     39528       335  POPE      C31           -31.4763488259       53.9733052000      -13.7426866232  MEMB      335             0.0000000000
     39529       335  POPE      O32           -32.5243766549       54.3555738760      -14.2096526042  MEMB      335             0.0000000000
     39530       335  POPE      C32           -31.3886025598       53.6938191890      -12.2320086863  MEMB      335             0.0000000000
     39531       335  POPE      H2X           -30.8664964732       54.5071820408      -11.6841338489  MEMB      335             0.0000000000
     39532       335  POPE      H2Y           -30.7808439793       52.7646183979      -12.1928116187  MEMB      335             0.0000000000
     39533       335  POPE      C23           -25.7395322633       51.6337155049      -13.7558790244  MEMB      335             0.0000000000
     39534       335  POPE      H3R           -24.7937695238       52.1257495266      -14.0685401610  MEMB      335             0.0000000000
     39535       335  POPE      H3S           -25.5117688672       50.6723105446      -13.2477987217  MEMB      335             0.0000000000
     39536       335  POPE      C24           -26.3464035714       52.5157583113      -12.6235118920  MEMB      335             0.0000000000
     39537       335  POPE      H4R           -27.3167766462       52.0361681050      -12.3731315363  MEMB      335             0.0000000000
     39538       335  POPE      H4S           -26.4456848963       53.5432188356      -13.0343515802  MEMB      335             0.0000000000
     39539       335  POPE      C25           -25.4349659263       52.4956061561      -11.4125378582  MEMB      335             0.0000000000
     39540       335  POPE      H5R           -24.4152857849       52.7807028465      -11.7491285792  MEMB      335             0.0000000000
     39541       335  POPE      H5S           -25.3197586617       51.5063819043      -10.9201116381  MEMB      335             0.0000000000
     39542       335  POPE      C26           -25.8816919502       53.5317827103      -10.3386227505  MEMB      335             0.0000000000
     39543       335  POPE      H6R           -25.8700088723       54.5859665977      -10.6891663477  MEMB      335             0.0000000000
     39544       335  POPE      H6S           -25.0073606970       53.4374077509       -9.6596836719  MEMB      335             0.0000000000
     39545       335  POPE      C27           -27.2537112351       53.2106434905       -9.7950506316  MEMB      335             0.0000000000
     39546       335  POPE      H7R           -27.9763096198       53.6917102104      -10.4884095530  MEMB      335             0.0000000000
     39547       335  POPE      H7S           -27.4646021801       53.8303582984       -8.8973870727  MEMB      335             0.0000000000
     39548       335  POPE      C28           -27.5645353647       51.7057736269       -9.4419915208  MEMB      335             0.0000000000
     39549       335  POPE      H8R           -27.3514346316       51.0652996389      -10.3244328065  MEMB      335             0.0000000000
     39550       335  POPE      H8S           -28.6582583344       51.5106045838       -9.4417736020  MEMB      335             0.0000000000
     39551       335  POPE      C29           -26.9192171226       51.1977621722       -8.2317426745  MEMB      335             0.0000000000
     39552       335  POPE      H91           -26.1258672712       50.4400448767       -8.3121200265  MEMB      335             0.0000000000
     39553       335  POPE      C210          -27.3181387978       51.6672946343       -7.0137141552  MEMB      335             0.0000000000
     39554       335  POPE      H101          -26.8485000907       51.3165768067       -6.0828887142  MEMB      335             0.0000000000
     39555       335  POPE      C211          -28.3970299480       52.7045175313       -6.7934361061  MEMB      335             0.0000000000
     39556       335  POPE      H11R          -29.1587068067       52.7088626693       -7.6022318691  MEMB      335             0.0000000000
     39557       335  POPE      H11S          -27.9172224050       53.7044933751       -6.7289851512  MEMB      335             0.0000000000
     39558       335  POPE      C212          -29.2829047761       52.5732750156       -5.4887825163  MEMB      335             0.0000000000
     39559       335  POPE      H12R          -29.9100602096       51.6654878799       -5.3587082317  MEMB      335             0.0000000000
     39560       335  POPE      H12S          -29.8324619980       53.5386527474       -5.5075994781  MEMB      335             0.0000000000
     39561       335  POPE      C213          -28.3816478891       52.5340624238       -4.2344101431  MEMB      335             0.0000000000
     39562       335  POPE      H13R          -27.9528238664       53.4970827145       -3.8836636293  MEMB      335             0.0000000000
     39563       335  POPE      H13S          -27.5470485399       51.8116317348       -4.3603417103  MEMB      335             0.0000000000
     39564       335  POPE      C214          -29.0761856462       51.8888948708       -3.0811414126  MEMB      335             0.0000000000
     39565       335  POPE      H14R          -28.3723620892       51.7676788724       -2.2301070548  MEMB      335             0.0000000000
     39566       335  POPE      H14S          -29.4684353172       50.8703514887       -3.2885791257  MEMB      335             0.0000000000
     39567       335  POPE      C215          -30.0966011366       52.7813557524       -2.4445364513  MEMB      335             0.0000000000
     39568       335  POPE      H15R          -31.1261428093       52.7861114599       -2.8620801012  MEMB      335             0.0000000000
     39569       335  POPE      H15S          -29.8961600658       53.8734472306       -2.4830131764  MEMB      335             0.0000000000
     39570       335  POPE      C216          -30.4914831703       52.4641973370       -1.0082585830  MEMB      335             0.0000000000
     39571       335  POPE      H16R          -31.1271360052       53.3032543699       -0.6529423569  MEMB      335             0.0000000000
     39572       335  POPE      H16S          -29.6005396262       52.6640871262       -0.3753414651  MEMB      335             0.0000000000
     39573       335  POPE      C217          -31.0215391331       51.0303057274       -0.8908245055  MEMB      335             0.0000000000
     39574       335  POPE      H17R          -30.4095149838       50.2766214046       -1.4309249980  MEMB      335             0.0000000000
     39575       335  POPE      H17S          -31.9880167341       50.9450921227       -1.4321013618  MEMB      335             0.0000000000
     39576       335  POPE      C218          -31.1856959172       50.6044230035        0.5817588626  MEMB      335             0.0000000000
     39577       335  POPE      H18R          -31.3279754622       49.5398252812        0.8658543820  MEMB      335             0.0000000000
     39578       335  POPE      H18S          -32.0988893555       51.0793365936        0.9999174226  MEMB      335             0.0000000000
     39579       335  POPE      H18T          -30.2751052409       50.9071642754        1.1416633613  MEMB      335             0.0000000000
     39580       335  POPE      C33           -32.7876539676       53.5192254671      -11.6457505506  MEMB      335             0.0000000000
     39581       335  POPE      H3X           -33.3606520634       52.8729928756      -12.3445907929  MEMB      335             0.0000000000
     39582       335  POPE      H3Y           -33.2568389848       54.5220670388      -11.5535800344  MEMB      335             0.0000000000
     39583       335  POPE      C34           -32.7633344261       52.9287226334      -10.2030493502  MEMB      335             0.0000000000
     39584       335  POPE      H4X           -33.7468806746       52.5663858964       -9.8347145028  MEMB      335             0.0000000000
     39585       335  POPE      H4Y           -32.4307881455       53.7753526339       -9.5651216907  MEMB      335             0.0000000000
     39586       335  POPE      C35           -31.9055851241       51.7730560437      -10.0131955503  MEMB      335             0.0000000000
     39587       335  POPE      H5X           -30.8326933725       52.0478314474      -10.1010744688  MEMB      335             0.0000000000
     39588       335  POPE      H5Y           -32.1525374377       51.0738691921      -10.8405238765  MEMB      335             0.0000000000
     39589       335  POPE      C36           -32.0802311874       50.8897523206       -8.7491326567  MEMB      335             0.0000000000
     39590       335  POPE      H6X           -33.1545796969       50.6798058368       -8.5593465070  MEMB      335             0.0000000000
     39591       335  POPE      H6Y           -31.7297189188       51.4522994534       -7.8575034050  MEMB      335             0.0000000000
     39592       335  POPE      C37           -31.2487881467       49.6318614738       -8.6338341434  MEMB      335             0.0000000000
     39593       335  POPE      H7X           -30.1804984703       49.7278856516       -8.9234161526  MEMB      335             0.0000000000
     39594       335  POPE      H7Y           -31.6244680829       48.9181147373       -9.3978704311  MEMB      335             0.0000000000
     39595       335  POPE      C38           -31.2041958216       49.0207408961       -7.1779145949  MEMB      335             0.0000000000
     39596       335  POPE      H8X           -32.2461773707       48.9317612067       -6.8028428946  MEMB      335             0.0000000000
     39597       335  POPE      H8Y           -30.7102146484       49.7699819521       -6.5229783487  MEMB      335             0.0000000000
     39598       335  POPE      C39           -30.3671957505       47.8243136839       -6.9874638019  MEMB      335             0.0000000000
     39599       335  POPE      H9X           -29.3752545841       48.1302101642       -7.3834453193  MEMB      335             0.0000000000
     39600       335  POPE      H9Y           -30.8273584968       46.9572647403       -7.5078459137  MEMB      335             0.0000000000
     39601       335  POPE      C310          -30.1904996961       47.3805087720       -5.5730693937  MEMB      335             0.0000000000
     39602       335  POPE      H10X          -29.6115163454       48.1484164489       -5.0168163411  MEMB      335             0.0000000000
     39603       335  POPE      H10Y          -29.5892316764       46.4468748011       -5.5395197510  MEMB      335             0.0000000000
     39604       335  POPE      C311          -31.5539511039       47.1025911035       -4.9925523315  MEMB      335             0.0000000000
     39605       335  POPE      H11X          -32.1633208922       46.4927908004       -5.6933610791  MEMB      335             0.0000000000
     39606       335  POPE      H11Y          -32.1374900016       48.0443737822       -4.9097945135  MEMB      335             0.0000000000
     39607       335  POPE      C312          -31.4575822552       46.3848730585       -3.6538855806  MEMB      335             0.0000000000
     39608       335  POPE      H12X          -30.6148415495       45.6632730892       -3.7122183215  MEMB      335             0.0000000000
     39609       335  POPE      H12Y          -32.3275386053       45.7050742504       -3.5299069074  MEMB      335             0.0000000000
     39610       335  POPE      C313          -31.2477236454       47.3053219320       -2.4143289062  MEMB      335             0.0000000000
     39611       335  POPE      H13X          -32.1796649630       47.8774807990       -2.2182656594  MEMB      335             0.0000000000
     39612       335  POPE      H13Y          -30.5458153344       48.0883007311       -2.7729230900  MEMB      335             0.0000000000
     39613       335  POPE      C314          -30.7581540044       46.6506331098       -1.1674328270  MEMB      335             0.0000000000
     39614       335  POPE      H14X          -30.5925544638       47.5178897831       -0.4930699004  MEMB      335             0.0000000000
     39615       335  POPE      H14Y          -29.7780514877       46.2046892802       -1.4410269727  MEMB      335             0.0000000000
     39616       335  POPE      C315          -31.8640010683       45.6837729463       -0.5898420337  MEMB      335             0.0000000000
     39617       335  POPE      H15X          -31.4971626604       45.1786593007        0.3291847837  MEMB      335             0.0000000000
     39618       335  POPE      H15Y          -31.9324145272       44.8830226961       -1.3569399458  MEMB      335             0.0000000000
     39619       335  POPE      C316          -33.2071780620       46.1789046447       -0.1047352799  MEMB      335             0.0000000000
     39620       335  POPE      H16X          -33.2161888957       46.8965720145        0.7433160124  MEMB      335             0.0000000000
     39621       335  POPE      H16Y          -33.8176085852       45.3166486680        0.2390808132  MEMB      335             0.0000000000
     39622       335  POPE      H16Z          -33.7429149688       46.4428869369       -1.0415500474  MEMB      335             0.0000000000
     39623       336  POPC      N             -50.7810832157      -26.0535155947      -21.1909413854  MEMB      336             0.0000000000
     39624       336  POPC      C12           -51.9024933145      -25.6872253152      -20.2023321545  MEMB      336             0.0000000000
     39625       336  POPC      H12A          -52.2086902212      -26.6390465054      -19.7940675803  MEMB      336             0.0000000000
     39626       336  POPC      H12B          -52.7385175391      -25.2329309288      -20.7132922078  MEMB      336             0.0000000000
     39627       336  POPC      C13           -49.7356798481      -26.8964691902      -20.5709857166  MEMB      336             0.0000000000
     39628       336  POPC      H13A          -50.2033197359      -27.6788603907      -19.9916957059  MEMB      336             0.0000000000
     39629       336  POPC      H13B          -48.9873921367      -27.2674429151      -21.2557076293  MEMB      336             0.0000000000
     39630       336  POPC      H13C          -49.1661258956      -26.2308607811      -19.9393421066  MEMB      336             0.0000000000
     39631       336  POPC      C14           -51.5508067658      -26.8350991229      -22.2507145576  MEMB      336             0.0000000000
     39632       336  POPC      H14A          -50.8802938336      -27.4704638573      -22.8102895940  MEMB      336             0.0000000000
     39633       336  POPC      H14B          -52.1956069640      -27.4595518145      -21.6501385161  MEMB      336             0.0000000000
     39634       336  POPC      H14C          -52.1469488042      -26.1985032774      -22.8877077743  MEMB      336             0.0000000000
     39635       336  POPC      C15           -50.1644261255      -24.7872273903      -21.8030167516  MEMB      336             0.0000000000
     39636       336  POPC      H15A          -50.0836654896      -24.0589337421      -21.0096278076  MEMB      336             0.0000000000
     39637       336  POPC      H15B          -50.6875343510      -24.3498883380      -22.6405682150  MEMB      336             0.0000000000
     39638       336  POPC      H15C          -49.2029581339      -24.9607703732      -22.2633017143  MEMB      336             0.0000000000
     39639       336  POPC      C11           -51.5569308102      -24.9337571807      -18.9406443629  MEMB      336             0.0000000000
     39640       336  POPC      H11A          -52.4991443436      -24.8989239695      -18.3529868482  MEMB      336             0.0000000000
     39641       336  POPC      H11B          -51.2785008574      -23.9141320070      -19.2829339681  MEMB      336             0.0000000000
     39642       336  POPC      P             -50.7955876921      -25.9882517605      -16.7512999274  MEMB      336             0.0000000000
     39643       336  POPC      O13           -51.2836719078      -27.3516664720      -16.9603723489  MEMB      336             0.0000000000
     39644       336  POPC      O14           -51.5824693500      -24.9795822515      -16.0807419276  MEMB      336             0.0000000000
     39645       336  POPC      O12           -50.4755672617      -25.5213391492      -18.1921427409  MEMB      336             0.0000000000
     39646       336  POPC      O11           -49.4017251231      -26.0420219194      -16.0568081278  MEMB      336             0.0000000000
     39647       336  POPC      C1            -48.1416013778      -26.2426284446      -16.6915690381  MEMB      336             0.0000000000
     39648       336  POPC      HA            -47.5381683942      -25.3180178033      -16.8152008050  MEMB      336             0.0000000000
     39649       336  POPC      HB            -48.1402059466      -26.5357445566      -17.7632043173  MEMB      336             0.0000000000
     39650       336  POPC      C2            -47.3605235179      -27.2583950866      -15.8587611385  MEMB      336             0.0000000000
     39651       336  POPC      HS            -46.4697271309      -27.4939085398      -16.4795156185  MEMB      336             0.0000000000
     39652       336  POPC      O21           -48.2566773418      -28.3695972877      -15.6924612062  MEMB      336             0.0000000000
     39653       336  POPC      C21           -48.5169044649      -29.2264392445      -16.7121387323  MEMB      336             0.0000000000
     39654       336  POPC      O22           -48.2872636444      -28.9570704082      -17.8504310858  MEMB      336             0.0000000000
     39655       336  POPC      C22           -49.3362051643      -30.4221664645      -16.3062154429  MEMB      336             0.0000000000
     39656       336  POPC      H2R           -48.6479178200      -31.2919465136      -16.3699634897  MEMB      336             0.0000000000
     39657       336  POPC      H2S           -50.1811128044      -30.4157575340      -17.0276106173  MEMB      336             0.0000000000
     39658       336  POPC      C3            -46.9331052292      -26.8276921374      -14.4428793769  MEMB      336             0.0000000000
     39659       336  POPC      HX            -46.3505643442      -25.9322391066      -14.7480523581  MEMB      336             0.0000000000
     39660       336  POPC      HY            -46.2830385638      -27.5374680776      -13.8879446906  MEMB      336             0.0000000000
     39661       336  POPC      O31           -48.0876491339      -26.5670305822      -13.6236143623  MEMB      336             0.0000000000
     39662       336  POPC      C31           -48.2773265378      -25.3712624153      -13.0803228401  MEMB      336             0.0000000000
     39663       336  POPC      O32           -47.6667887204      -24.3540914547      -13.1998409242  MEMB      336             0.0000000000
     39664       336  POPC      C32           -49.5832960675      -25.4091193014      -12.3179196477  MEMB      336             0.0000000000
     39665       336  POPC      H2X           -49.2628171340      -25.7603605202      -11.3138063157  MEMB      336             0.0000000000
     39666       336  POPC      H2Y           -50.2705792221      -26.1811888394      -12.7251929729  MEMB      336             0.0000000000
     39667       336  POPC      C23           -49.7732355684      -30.3801310861      -14.7995807678  MEMB      336             0.0000000000
     39668       336  POPC      H3R           -50.4655766457      -31.2434764948      -14.7015007456  MEMB      336             0.0000000000
     39669       336  POPC      H3S           -50.3789073276      -29.5131763848      -14.4591806162  MEMB      336             0.0000000000
     39670       336  POPC      C24           -48.5938215383      -30.6704991634      -13.8289410181  MEMB      336             0.0000000000
     39671       336  POPC      H4R           -47.7068954565      -30.0019152408      -13.8549891004  MEMB      336             0.0000000000
     39672       336  POPC      H4S           -48.1603328982      -31.6410605441      -14.1520793356  MEMB      336             0.0000000000
     39673       336  POPC      C25           -48.9759497529      -30.6742440716      -12.3554382277  MEMB      336             0.0000000000
     39674       336  POPC      H5R           -48.2956062527      -31.3152618043      -11.7549801241  MEMB      336             0.0000000000
     39675       336  POPC      H5S           -49.9571948520      -31.1952806405      -12.3558723700  MEMB      336             0.0000000000
     39676       336  POPC      C26           -49.2093754399      -29.2959542078      -11.7668949505  MEMB      336             0.0000000000
     39677       336  POPC      H6R           -50.1611282631      -28.8988682443      -12.1801864820  MEMB      336             0.0000000000
     39678       336  POPC      H6S           -48.4523885500      -28.4919141613      -11.8885977517  MEMB      336             0.0000000000
     39679       336  POPC      C27           -49.4648795350      -29.3459740676      -10.2477583244  MEMB      336             0.0000000000
     39680       336  POPC      H7R           -50.2576385220      -30.0730097253       -9.9697772282  MEMB      336             0.0000000000
     39681       336  POPC      H7S           -49.8222074436      -28.4465639454       -9.7021400650  MEMB      336             0.0000000000
     39682       336  POPC      C28           -48.2871510400      -30.0270668614       -9.4919450698  MEMB      336             0.0000000000
     39683       336  POPC      H8R           -48.1984673943      -31.0977667926       -9.7748884617  MEMB      336             0.0000000000
     39684       336  POPC      H8S           -48.4342296816      -29.8879538310       -8.3995454087  MEMB      336             0.0000000000
     39685       336  POPC      C29           -46.9682488868      -29.4115701888       -9.8616494512  MEMB      336             0.0000000000
     39686       336  POPC      H91           -46.6179312138      -29.5250304401      -10.8981841861  MEMB      336             0.0000000000
     39687       336  POPC      C210          -46.1078013023      -28.7539558891       -9.0349401133  MEMB      336             0.0000000000
     39688       336  POPC      H101          -45.1396357338      -28.4455967847       -9.4563311211  MEMB      336             0.0000000000
     39689       336  POPC      C211          -46.2050070456      -28.5020522528       -7.5243562905  MEMB      336             0.0000000000
     39690       336  POPC      H11R          -46.1010819318      -29.4491146597       -6.9528731426  MEMB      336             0.0000000000
     39691       336  POPC      H11S          -47.2084792805      -28.0359195113       -7.4239320798  MEMB      336             0.0000000000
     39692       336  POPC      C212          -45.1749511174      -27.4551518413       -6.8592486170  MEMB      336             0.0000000000
     39693       336  POPC      H12R          -44.8719869854      -26.5350458697       -7.4032510129  MEMB      336             0.0000000000
     39694       336  POPC      H12S          -44.1948690978      -27.9781818449       -6.8451306384  MEMB      336             0.0000000000
     39695       336  POPC      C213          -45.5991884712      -27.0240984749       -5.3432746846  MEMB      336             0.0000000000
     39696       336  POPC      H13R          -44.8572250099      -26.2803880159       -4.9817411455  MEMB      336             0.0000000000
     39697       336  POPC      H13S          -45.5586181946      -27.8487020148       -4.5998335594  MEMB      336             0.0000000000
     39698       336  POPC      C214          -46.9538185145      -26.3882562958       -5.1765254668  MEMB      336             0.0000000000
     39699       336  POPC      H14R          -47.6919883549      -27.1813899189       -5.4222190367  MEMB      336             0.0000000000
     39700       336  POPC      H14S          -47.0713182963      -25.5574488948       -5.9047243139  MEMB      336             0.0000000000
     39701       336  POPC      C215          -47.1072609750      -25.7955280177       -3.7411789889  MEMB      336             0.0000000000
     39702       336  POPC      H15R          -48.0360740755      -25.1860305751       -3.7530086616  MEMB      336             0.0000000000
     39703       336  POPC      H15S          -46.2918149363      -25.0902092467       -3.4730482224  MEMB      336             0.0000000000
     39704       336  POPC      C216          -47.2207799890      -26.8793775799       -2.5468382426  MEMB      336             0.0000000000
     39705       336  POPC      H16R          -47.3908193421      -26.3719408316       -1.5732286440  MEMB      336             0.0000000000
     39706       336  POPC      H16S          -46.1592732728      -27.2053179131       -2.5827206974  MEMB      336             0.0000000000
     39707       336  POPC      C217          -48.2360975880      -28.0086184710       -2.7121625358  MEMB      336             0.0000000000
     39708       336  POPC      H17R          -48.2609559930      -28.4103810308       -3.7476767450  MEMB      336             0.0000000000
     39709       336  POPC      H17S          -49.2454127092      -27.5792781217       -2.5353262345  MEMB      336             0.0000000000
     39710       336  POPC      C218          -47.9556605524      -29.1459695392       -1.7094468324  MEMB      336             0.0000000000
     39711       336  POPC      H18R          -46.8528405208      -29.1726934142       -1.5775559277  MEMB      336             0.0000000000
     39712       336  POPC      H18S          -48.2726495869      -30.1450998335       -2.0776543495  MEMB      336             0.0000000000
     39713       336  POPC      H18T          -48.4061519578      -28.8604961341       -0.7348268432  MEMB      336             0.0000000000
     39714       336  POPC      C33           -50.2511262013      -24.0675226572      -12.4377750484  MEMB      336             0.0000000000
     39715       336  POPC      H3X           -49.9495268756      -23.5023413144      -13.3454801860  MEMB      336             0.0000000000
     39716       336  POPC      H3Y           -49.8361107607      -23.4990995023      -11.5781364480  MEMB      336             0.0000000000
     39717       336  POPC      C34           -51.8091452032      -24.0222943204      -12.1624403362  MEMB      336             0.0000000000
     39718       336  POPC      H4X           -52.3976503971      -24.2274588729      -13.0821634140  MEMB      336             0.0000000000
     39719       336  POPC      H4Y           -52.1258694829      -22.9883263729      -11.9076530251  MEMB      336             0.0000000000
     39720       336  POPC      C35           -52.3658491352      -25.0589916637      -11.1392898656  MEMB      336             0.0000000000
     39721       336  POPC      H5X           -52.3424807047      -26.1325738110      -11.4242392832  MEMB      336             0.0000000000
     39722       336  POPC      H5Y           -53.4411746070      -24.7857073531      -11.0817399003  MEMB      336             0.0000000000
     39723       336  POPC      C36           -51.6003373869      -24.8395836677       -9.8031450977  MEMB      336             0.0000000000
     39724       336  POPC      H6X           -51.6961730016      -23.7828838891       -9.4737179585  MEMB      336             0.0000000000
     39725       336  POPC      H6Y           -50.4896589496      -24.8191075893       -9.8203295083  MEMB      336             0.0000000000
     39726       336  POPC      C37           -51.9907296936      -25.8420407967       -8.7182809370  MEMB      336             0.0000000000
     39727       336  POPC      H7X           -51.7178429459      -26.8281191416       -9.1512972181  MEMB      336             0.0000000000
     39728       336  POPC      H7Y           -53.0688248299      -25.6605039327       -8.5206038742  MEMB      336             0.0000000000
     39729       336  POPC      C38           -51.1625099262      -25.6679901628       -7.4444166179  MEMB      336             0.0000000000
     39730       336  POPC      H8X           -50.0813841074      -25.7518474462       -7.6861930187  MEMB      336             0.0000000000
     39731       336  POPC      H8Y           -51.5839487664      -26.3783252739       -6.7013585922  MEMB      336             0.0000000000
     39732       336  POPC      C39           -51.4429729670      -24.2994576542       -6.7454201642  MEMB      336             0.0000000000
     39733       336  POPC      H9X           -52.5451842006      -24.2227147433       -6.6289649707  MEMB      336             0.0000000000
     39734       336  POPC      H9Y           -51.2925596830      -23.5480093117       -7.5497967584  MEMB      336             0.0000000000
     39735       336  POPC      C310          -50.8566226982      -23.9223674662       -5.4234533228  MEMB      336             0.0000000000
     39736       336  POPC      H10X          -50.7326260092      -22.8227237057       -5.3248136773  MEMB      336             0.0000000000
     39737       336  POPC      H10Y          -49.8168318497      -24.2539221365       -5.2155407210  MEMB      336             0.0000000000
     39738       336  POPC      C311          -51.7598126337      -24.4830975082       -4.3002059894  MEMB      336             0.0000000000
     39739       336  POPC      H11X          -51.9487354930      -25.5724979209       -4.4089995133  MEMB      336             0.0000000000
     39740       336  POPC      H11Y          -52.7622866451      -24.0041756888       -4.2992782336  MEMB      336             0.0000000000
     39741       336  POPC      C312          -51.0014003364      -24.2164943680       -2.9504015381  MEMB      336             0.0000000000
     39742       336  POPC      H12X          -50.6694743872      -23.1708806558       -2.7747938476  MEMB      336             0.0000000000
     39743       336  POPC      H12Y          -50.0662405358      -24.7662859516       -3.1902479761  MEMB      336             0.0000000000
     39744       336  POPC      C313          -51.6936529319      -24.7504182478       -1.7480368276  MEMB      336             0.0000000000
     39745       336  POPC      H13X          -52.0063967787      -25.7898010848       -1.9850929168  MEMB      336             0.0000000000
     39746       336  POPC      H13Y          -52.5412738665      -24.0889357684       -1.4682160029  MEMB      336             0.0000000000
     39747       336  POPC      C314          -50.7399326024      -24.9119711035       -0.5203329947  MEMB      336             0.0000000000
     39748       336  POPC      H14X          -50.2982394969      -23.9066475435       -0.3513573005  MEMB      336             0.0000000000
     39749       336  POPC      H14Y          -49.9205413768      -25.6217653991       -0.7634613229  MEMB      336             0.0000000000
     39750       336  POPC      C315          -51.3486071184      -25.5287690657        0.7130128503  MEMB      336             0.0000000000
     39751       336  POPC      H15X          -51.5374015908      -26.6154806229        0.5798361101  MEMB      336             0.0000000000
     39752       336  POPC      H15Y          -52.3211716819      -25.0694637499        0.9913606891  MEMB      336             0.0000000000
     39753       336  POPC      C316          -50.4671979309      -25.2836296118        1.9418625251  MEMB      336             0.0000000000
     39754       336  POPC      H16X          -49.3905235071      -25.5353924801        1.8336558676  MEMB      336             0.0000000000
     39755       336  POPC      H16Y          -50.7807224960      -25.7168418772        2.9156940424  MEMB      336             0.0000000000
     39756       336  POPC      H16Z          -50.3769760243      -24.1868300392        2.0942157213  MEMB      336             0.0000000000
     39757       337  POPC      N              44.2646962178       41.7749751212      -18.2395608640  MEMB      337             0.0000000000
     39758       337  POPC      C12            45.2548473641       42.9065361215      -18.1038523623  MEMB      337             0.0000000000
     39759       337  POPC      H12A           46.2053982545       42.4656910043      -17.8421110853  MEMB      337             0.0000000000
     39760       337  POPC      H12B           44.9479631901       43.6083668597      -17.3425010879  MEMB      337             0.0000000000
     39761       337  POPC      C13            44.9182287902       40.6862374174      -19.1232250907  MEMB      337             0.0000000000
     39762       337  POPC      H13A           45.9418483055       40.5472607738      -18.8081242410  MEMB      337             0.0000000000
     39763       337  POPC      H13B           44.3688734830       39.7638493770      -19.0057127579  MEMB      337             0.0000000000
     39764       337  POPC      H13C           44.8778077694       41.0825507064      -20.1270687450  MEMB      337             0.0000000000
     39765       337  POPC      C14            44.2066014581       41.1588919958      -16.8894039155  MEMB      337             0.0000000000
     39766       337  POPC      H14A           45.1215475451       40.6916200898      -16.5563415045  MEMB      337             0.0000000000
     39767       337  POPC      H14B           43.9927012324       41.8987177448      -16.1322349934  MEMB      337             0.0000000000
     39768       337  POPC      H14C           43.4311202228       40.4072336714      -16.8955917811  MEMB      337             0.0000000000
     39769       337  POPC      C15            42.9294880097       42.0581944530      -18.6744694684  MEMB      337             0.0000000000
     39770       337  POPC      H15A           42.4445773542       42.7131636507      -17.9657545075  MEMB      337             0.0000000000
     39771       337  POPC      H15B           42.4387998010       41.0978488338      -18.7324449403  MEMB      337             0.0000000000
     39772       337  POPC      H15C           42.9599577530       42.5560976708      -19.6323650352  MEMB      337             0.0000000000
     39773       337  POPC      C11            45.5252506391       43.7753097460      -19.3603230331  MEMB      337             0.0000000000
     39774       337  POPC      H11A           46.2923348148       43.3352508012      -20.0328190376  MEMB      337             0.0000000000
     39775       337  POPC      H11B           46.1646150435       44.6545771767      -19.1313630593  MEMB      337             0.0000000000
     39776       337  POPC      P              43.5526083950       45.4401863266      -19.7542892002  MEMB      337             0.0000000000
     39777       337  POPC      O13            42.2976537916       45.3038604304      -20.4296601346  MEMB      337             0.0000000000
     39778       337  POPC      O14            44.4186411476       46.5668722234      -20.1618250803  MEMB      337             0.0000000000
     39779       337  POPC      O12            44.3509785099       44.0496646384      -20.0641910442  MEMB      337             0.0000000000
     39780       337  POPC      O11            43.3025592081       45.4617071071      -18.1991998023  MEMB      337             0.0000000000
     39781       337  POPC      C1             44.1979438765       45.8069878681      -17.1416585091  MEMB      337             0.0000000000
     39782       337  POPC      HA             44.3847790182       46.9020585641      -17.1263725843  MEMB      337             0.0000000000
     39783       337  POPC      HB             45.2318613244       45.4063245882      -17.2109745805  MEMB      337             0.0000000000
     39784       337  POPC      C2             43.6086803616       45.3597930869      -15.7384989484  MEMB      337             0.0000000000
     39785       337  POPC      HS             43.5935293266       44.2504379849      -15.6799947477  MEMB      337             0.0000000000
     39786       337  POPC      O21            42.2668398931       45.9574665279      -15.6477021298  MEMB      337             0.0000000000
     39787       337  POPC      C21            41.2801755619       45.2157911943      -15.2692303138  MEMB      337             0.0000000000
     39788       337  POPC      O22            41.3426556501       44.0091248707      -15.1592556736  MEMB      337             0.0000000000
     39789       337  POPC      C22            40.0684951372       46.0441586423      -15.1418924682  MEMB      337             0.0000000000
     39790       337  POPC      H2R            39.2839307423       45.3681478967      -14.7396626128  MEMB      337             0.0000000000
     39791       337  POPC      H2S            39.7841784485       46.4264332129      -16.1455615060  MEMB      337             0.0000000000
     39792       337  POPC      C3             44.5358879651       45.9012589096      -14.5621885005  MEMB      337             0.0000000000
     39793       337  POPC      HX             44.1932468066       46.9480856489      -14.4170278012  MEMB      337             0.0000000000
     39794       337  POPC      HY             45.6167143104       45.8766792163      -14.8181794425  MEMB      337             0.0000000000
     39795       337  POPC      O31            44.2712567766       45.1517041767      -13.3282074538  MEMB      337             0.0000000000
     39796       337  POPC      C31            44.5745997642       43.8714969299      -13.3487018952  MEMB      337             0.0000000000
     39797       337  POPC      O32            45.2244335721       43.3026869108      -14.2248648731  MEMB      337             0.0000000000
     39798       337  POPC      C32            43.8266691799       43.1156842523      -12.1853780573  MEMB      337             0.0000000000
     39799       337  POPC      H2X            42.7374855524       43.1951147374      -12.3895615994  MEMB      337             0.0000000000
     39800       337  POPC      H2Y            44.0302373172       43.6428887941      -11.2288551473  MEMB      337             0.0000000000
     39801       337  POPC      C23            40.4019122456       47.3267299118      -14.3611942801  MEMB      337             0.0000000000
     39802       337  POPC      H3R            39.4026140798       47.7577188331      -14.1376491904  MEMB      337             0.0000000000
     39803       337  POPC      H3S            40.9282757805       48.1109895073      -14.9461728355  MEMB      337             0.0000000000
     39804       337  POPC      C24            41.0129802493       47.1293961351      -12.9365131244  MEMB      337             0.0000000000
     39805       337  POPC      H4R            41.1851136273       48.1469572204      -12.5250992676  MEMB      337             0.0000000000
     39806       337  POPC      H4S            41.9513678995       46.5346605274      -12.9427637319  MEMB      337             0.0000000000
     39807       337  POPC      C25            40.1005641100       46.3768009995      -12.0030420070  MEMB      337             0.0000000000
     39808       337  POPC      H5R            40.1030901278       45.3595282409      -12.4496639392  MEMB      337             0.0000000000
     39809       337  POPC      H5S            39.1348381323       46.9074125741      -12.1449778196  MEMB      337             0.0000000000
     39810       337  POPC      C26            40.6502924738       46.3267666321      -10.5368372648  MEMB      337             0.0000000000
     39811       337  POPC      H6R            40.4337594308       47.3640204102      -10.2028637995  MEMB      337             0.0000000000
     39812       337  POPC      H6S            41.7381517985       46.1012400041      -10.5414206272  MEMB      337             0.0000000000
     39813       337  POPC      C27            40.0743064192       45.1007263023       -9.7792020235  MEMB      337             0.0000000000
     39814       337  POPC      H7R            40.3907996154       44.2330923664      -10.3967490513  MEMB      337             0.0000000000
     39815       337  POPC      H7S            38.9709101265       45.1757132436       -9.6733043467  MEMB      337             0.0000000000
     39816       337  POPC      C28            40.5399935365       44.9348497300       -8.3290471007  MEMB      337             0.0000000000
     39817       337  POPC      H8R            40.1701263654       43.9555789056       -7.9568270185  MEMB      337             0.0000000000
     39818       337  POPC      H8S            40.1073235136       45.7896193112       -7.7664762784  MEMB      337             0.0000000000
     39819       337  POPC      C29            42.0251443955       44.7630949860       -8.2700103817  MEMB      337             0.0000000000
     39820       337  POPC      H91            42.2406939776       43.7075414348       -8.4921481493  MEMB      337             0.0000000000
     39821       337  POPC      C210           42.8867677696       45.7041157451       -7.9332240547  MEMB      337             0.0000000000
     39822       337  POPC      H101           43.9107173164       45.3058834953       -7.8790155446  MEMB      337             0.0000000000
     39823       337  POPC      C211           42.6046008169       47.0892055654       -7.5598469812  MEMB      337             0.0000000000
     39824       337  POPC      H11R           41.7889689113       47.5076628456       -8.1875081800  MEMB      337             0.0000000000
     39825       337  POPC      H11S           43.3260433971       47.8859198189       -7.8410727665  MEMB      337             0.0000000000
     39826       337  POPC      C212           42.1902948092       47.2900440293       -6.0933387057  MEMB      337             0.0000000000
     39827       337  POPC      H12R           41.1722048062       46.9001051052       -5.8794196171  MEMB      337             0.0000000000
     39828       337  POPC      H12S           42.0360222504       48.3871717551       -6.0106849728  MEMB      337             0.0000000000
     39829       337  POPC      C213           43.1384338356       46.9050271260       -4.9252202037  MEMB      337             0.0000000000
     39830       337  POPC      H13R           44.0270589877       47.4706734318       -5.2783644155  MEMB      337             0.0000000000
     39831       337  POPC      H13S           43.3013129996       45.8108522250       -4.8223980893  MEMB      337             0.0000000000
     39832       337  POPC      C214           42.7279386729       47.5445601266       -3.5959933603  MEMB      337             0.0000000000
     39833       337  POPC      H14R           41.6695159473       47.2728015337       -3.3954694920  MEMB      337             0.0000000000
     39834       337  POPC      H14S           42.8624775346       48.6428154135       -3.6962705458  MEMB      337             0.0000000000
     39835       337  POPC      C215           43.4893379142       47.1180314222       -2.3593043426  MEMB      337             0.0000000000
     39836       337  POPC      H15R           44.3952504720       47.7455526819       -2.2183775359  MEMB      337             0.0000000000
     39837       337  POPC      H15S           43.8696083980       46.0753740534       -2.4101077099  MEMB      337             0.0000000000
     39838       337  POPC      C216           42.6383170108       47.2152300738       -1.0660584950  MEMB      337             0.0000000000
     39839       337  POPC      H16R           41.8544303120       46.4294400402       -1.0173048759  MEMB      337             0.0000000000
     39840       337  POPC      H16S           42.2950083976       48.2690712571       -0.9893837214  MEMB      337             0.0000000000
     39841       337  POPC      C217           43.5464758474       47.0152416200        0.1819611094  MEMB      337             0.0000000000
     39842       337  POPC      H17R           44.4119389712       47.6796724601       -0.0273872908  MEMB      337             0.0000000000
     39843       337  POPC      H17S           43.9296433629       45.9853734646        0.3458976820  MEMB      337             0.0000000000
     39844       337  POPC      C218           42.8652439551       47.4934524928        1.4558035799  MEMB      337             0.0000000000
     39845       337  POPC      H18R           43.5333782690       47.2457599567        2.3081914291  MEMB      337             0.0000000000
     39846       337  POPC      H18S           41.9100034120       46.9664444187        1.6658008929  MEMB      337             0.0000000000
     39847       337  POPC      H18T           42.7759699621       48.6008577733        1.4536153029  MEMB      337             0.0000000000
     39848       337  POPC      C33            44.2745487473       41.6562414903      -12.1093797491  MEMB      337             0.0000000000
     39849       337  POPC      H3X            45.3843216017       41.6178878260      -12.1447948715  MEMB      337             0.0000000000
     39850       337  POPC      H3Y            43.8917732844       41.1316675505      -13.0108378952  MEMB      337             0.0000000000
     39851       337  POPC      C34            43.8721653089       40.8911866592      -10.8322175699  MEMB      337             0.0000000000
     39852       337  POPC      H4X            44.4661475799       41.3620488089      -10.0199402100  MEMB      337             0.0000000000
     39853       337  POPC      H4Y            44.0883280971       39.8189393865      -11.0268464736  MEMB      337             0.0000000000
     39854       337  POPC      C35            42.4090273014       41.0582102278      -10.4368035247  MEMB      337             0.0000000000
     39855       337  POPC      H5X            41.8224556229       40.9754351653      -11.3766981512  MEMB      337             0.0000000000
     39856       337  POPC      H5Y            42.3721592056       42.0723652040       -9.9846401594  MEMB      337             0.0000000000
     39857       337  POPC      C36            41.9260878609       39.9665232348       -9.4580890419  MEMB      337             0.0000000000
     39858       337  POPC      H6X            42.7719771215       39.3306726588       -9.1197303651  MEMB      337             0.0000000000
     39859       337  POPC      H6Y            41.1362929240       39.3363836525       -9.9201158194  MEMB      337             0.0000000000
     39860       337  POPC      C37            41.2793447105       40.5029771120       -8.1764912224  MEMB      337             0.0000000000
     39861       337  POPC      H7X            40.4572718962       39.8449606146       -7.8221856275  MEMB      337             0.0000000000
     39862       337  POPC      H7Y            40.7883846330       41.4908889497       -8.3080568977  MEMB      337             0.0000000000
     39863       337  POPC      C38            42.3094715817       40.7175167400       -7.0642213203  MEMB      337             0.0000000000
     39864       337  POPC      H8X            43.0924628361       41.3798809744       -7.4914438865  MEMB      337             0.0000000000
     39865       337  POPC      H8Y            42.7416109771       39.7669460678       -6.6847585556  MEMB      337             0.0000000000
     39866       337  POPC      C39            41.6863717165       41.6770900315       -6.0022387348  MEMB      337             0.0000000000
     39867       337  POPC      H9X            40.5769518242       41.7112617111       -5.9538528235  MEMB      337             0.0000000000
     39868       337  POPC      H9Y            41.9710527813       42.7043956366       -6.3151616352  MEMB      337             0.0000000000
     39869       337  POPC      C310           42.3977000433       41.4730171696       -4.6062806048  MEMB      337             0.0000000000
     39870       337  POPC      H10X           43.4487380575       41.1752293798       -4.8086736171  MEMB      337             0.0000000000
     39871       337  POPC      H10Y           42.0055089220       40.5148605974       -4.2032382117  MEMB      337             0.0000000000
     39872       337  POPC      C311           42.3526761569       42.5836365739       -3.5981010313  MEMB      337             0.0000000000
     39873       337  POPC      H11X           41.3249628417       42.9173808837       -3.3397576254  MEMB      337             0.0000000000
     39874       337  POPC      H11Y           42.8704360898       43.4194541782       -4.1154539290  MEMB      337             0.0000000000
     39875       337  POPC      C312           42.8943252247       42.3336264265       -2.1491256298  MEMB      337             0.0000000000
     39876       337  POPC      H12X           42.3416507309       41.4949187265       -1.6743186506  MEMB      337             0.0000000000
     39877       337  POPC      H12Y           42.7752280294       43.2494207712       -1.5315033450  MEMB      337             0.0000000000
     39878       337  POPC      C313           44.4272354431       42.1708112237       -2.1024802650  MEMB      337             0.0000000000
     39879       337  POPC      H13X           44.6296174556       41.3720347329       -2.8476776374  MEMB      337             0.0000000000
     39880       337  POPC      H13Y           44.8787371263       41.8784394000       -1.1303767804  MEMB      337             0.0000000000
     39881       337  POPC      C314           45.1373372135       43.5334906389       -2.2743716446  MEMB      337             0.0000000000
     39882       337  POPC      H14X           44.8839074836       44.2118111260       -1.4317713665  MEMB      337             0.0000000000
     39883       337  POPC      H14Y           44.9099903026       44.0038227893       -3.2548927869  MEMB      337             0.0000000000
     39884       337  POPC      C315           46.6563651782       43.1116686322       -2.1957641516  MEMB      337             0.0000000000
     39885       337  POPC      H15X           46.7598532116       42.3906405923       -3.0346499147  MEMB      337             0.0000000000
     39886       337  POPC      H15Y           46.8177719303       42.5915314396       -1.2274009156  MEMB      337             0.0000000000
     39887       337  POPC      C316           47.5945146082       44.3358626271       -2.3041111652  MEMB      337             0.0000000000
     39888       337  POPC      H16X           48.5995065445       44.0087393599       -2.6466060028  MEMB      337             0.0000000000
     39889       337  POPC      H16Y           47.6437216502       45.0277354646       -1.4362345878  MEMB      337             0.0000000000
     39890       337  POPC      H16Z           47.3091695391       45.0374866956       -3.1168990875  MEMB      337             0.0000000000
     39891       338  POPC      N              33.0714127765       53.6661444056      -20.8996310314  MEMB      338             0.0000000000
     39892       338  POPC      C12            32.6055670418       54.0550951069      -19.5642061625  MEMB      338             0.0000000000
     39893       338  POPC      H12A           31.5745313793       53.7515479190      -19.4582600467  MEMB      338             0.0000000000
     39894       338  POPC      H12B           32.7360779560       55.1254285292      -19.5029423878  MEMB      338             0.0000000000
     39895       338  POPC      C13            34.5785217723       53.8024336172      -21.1547688180  MEMB      338             0.0000000000
     39896       338  POPC      H13A           34.7768817043       53.5795412472      -22.1927342336  MEMB      338             0.0000000000
     39897       338  POPC      H13B           34.9251153767       54.8078673808      -20.9666837277  MEMB      338             0.0000000000
     39898       338  POPC      H13C           35.1667261899       53.1089436911      -20.5721133655  MEMB      338             0.0000000000
     39899       338  POPC      C14            32.6639981385       52.2522163887      -21.2040561048  MEMB      338             0.0000000000
     39900       338  POPC      H14A           31.5901181669       52.1451839437      -21.1625113791  MEMB      338             0.0000000000
     39901       338  POPC      H14B           32.9745008115       52.0884388468      -22.2254105687  MEMB      338             0.0000000000
     39902       338  POPC      H14C           33.1041621146       51.5620393187      -20.4995624456  MEMB      338             0.0000000000
     39903       338  POPC      C15            32.2766053256       54.5981673584      -21.8122127748  MEMB      338             0.0000000000
     39904       338  POPC      H15A           32.6709283119       54.5369824312      -22.8157893579  MEMB      338             0.0000000000
     39905       338  POPC      H15B           32.5264672217       55.5930285151      -21.4742477975  MEMB      338             0.0000000000
     39906       338  POPC      H15C           31.2388299836       54.3274277156      -21.6852386057  MEMB      338             0.0000000000
     39907       338  POPC      C11            33.3007584929       53.3861384334      -18.3653484340  MEMB      338             0.0000000000
     39908       338  POPC      H11A           33.0984871261       52.2937847817      -18.3522780908  MEMB      338             0.0000000000
     39909       338  POPC      H11B           32.8116083636       53.8460449870      -17.4801710109  MEMB      338             0.0000000000
     39910       338  POPC      P              35.6487865727       53.0791456215      -17.1222948067  MEMB      338             0.0000000000
     39911       338  POPC      O13            36.1989521570       51.7842336135      -17.6244337712  MEMB      338             0.0000000000
     39912       338  POPC      O14            34.9622866635       53.1045670207      -15.8280562043  MEMB      338             0.0000000000
     39913       338  POPC      O12            34.7109666062       53.7008160657      -18.2270694244  MEMB      338             0.0000000000
     39914       338  POPC      O11            36.8532097587       54.1753519646      -17.1979224451  MEMB      338             0.0000000000
     39915       338  POPC      C1             37.5337628021       54.3201245525      -18.4607940541  MEMB      338             0.0000000000
     39916       338  POPC      HA             36.8194305833       54.2580727668      -19.3094400314  MEMB      338             0.0000000000
     39917       338  POPC      HB             38.3021966171       53.5203320323      -18.5253112264  MEMB      338             0.0000000000
     39918       338  POPC      C2             38.1612447103       55.6672384229      -18.4529632131  MEMB      338             0.0000000000
     39919       338  POPC      HS             38.7726905562       55.7075966862      -19.3796918554  MEMB      338             0.0000000000
     39920       338  POPC      O21            39.0024147611       55.8956872323      -17.3384815492  MEMB      338             0.0000000000
     39921       338  POPC      C21            39.8419318105       54.9565446551      -16.7578951448  MEMB      338             0.0000000000
     39922       338  POPC      O22            39.9625966565       53.7923669529      -16.9967606661  MEMB      338             0.0000000000
     39923       338  POPC      C22            40.6436040970       55.5582784554      -15.5835856311  MEMB      338             0.0000000000
     39924       338  POPC      H2R            40.8916615021       56.6398920620      -15.5297299509  MEMB      338             0.0000000000
     39925       338  POPC      H2S            41.6096837618       55.0380493773      -15.7578633881  MEMB      338             0.0000000000
     39926       338  POPC      C3             37.1072976391       56.7865184454      -18.5056389964  MEMB      338             0.0000000000
     39927       338  POPC      HX             36.5909790218       56.5910512317      -19.4697596032  MEMB      338             0.0000000000
     39928       338  POPC      HY             37.7143103220       57.7122173957      -18.6001794824  MEMB      338             0.0000000000
     39929       338  POPC      O31            36.1577740702       56.7517693722      -17.4545270441  MEMB      338             0.0000000000
     39930       338  POPC      C31            35.2082542165       57.7386650165      -17.6094178291  MEMB      338             0.0000000000
     39931       338  POPC      O32            35.2213687590       58.4893993080      -18.5075917620  MEMB      338             0.0000000000
     39932       338  POPC      C32            34.0920231606       57.6482626180      -16.5955767464  MEMB      338             0.0000000000
     39933       338  POPC      H2X            33.2487497902       57.0479139534      -16.9990518103  MEMB      338             0.0000000000
     39934       338  POPC      H2Y            33.7845353490       58.7034039962      -16.4329436669  MEMB      338             0.0000000000
     39935       338  POPC      C23            39.8702537695       55.3001177334      -14.3054044455  MEMB      338             0.0000000000
     39936       338  POPC      H3R            40.5179523904       55.2319237746      -13.4053167470  MEMB      338             0.0000000000
     39937       338  POPC      H3S            39.2955566060       54.3541856671      -14.2091918414  MEMB      338             0.0000000000
     39938       338  POPC      C24            38.8245883496       56.4360241085      -14.1297361068  MEMB      338             0.0000000000
     39939       338  POPC      H4R            38.0734218835       56.2474786876      -14.9263036805  MEMB      338             0.0000000000
     39940       338  POPC      H4S            39.0719677965       57.5191304658      -14.1320641469  MEMB      338             0.0000000000
     39941       338  POPC      C25            38.1160341334       56.3575455149      -12.8274457336  MEMB      338             0.0000000000
     39942       338  POPC      H5R            37.6474012393       55.3519026882      -12.7692499435  MEMB      338             0.0000000000
     39943       338  POPC      H5S            37.1747283123       56.9250988482      -12.9891474484  MEMB      338             0.0000000000
     39944       338  POPC      C26            38.9077632081       56.8177542127      -11.6120969562  MEMB      338             0.0000000000
     39945       338  POPC      H6R            39.0032384223       57.9198976348      -11.7144949954  MEMB      338             0.0000000000
     39946       338  POPC      H6S            39.8864466137       56.2921463535      -11.6274682315  MEMB      338             0.0000000000
     39947       338  POPC      C27            38.0435354251       56.4345081858      -10.3296780751  MEMB      338             0.0000000000
     39948       338  POPC      H7R            37.8251594257       55.3483537773      -10.4127561258  MEMB      338             0.0000000000
     39949       338  POPC      H7S            37.0868629654       56.9951071573      -10.3991594823  MEMB      338             0.0000000000
     39950       338  POPC      C28            38.6768068700       56.8824932680       -8.9820113831  MEMB      338             0.0000000000
     39951       338  POPC      H8R            38.0660750765       56.5891797304       -8.1015029653  MEMB      338             0.0000000000
     39952       338  POPC      H8S            38.8656338727       57.9758798723       -8.9257014793  MEMB      338             0.0000000000
     39953       338  POPC      C29            39.9267531957       56.0611282509       -8.7663103440  MEMB      338             0.0000000000
     39954       338  POPC      H91            40.6118481069       55.8831319036       -9.6083096868  MEMB      338             0.0000000000
     39955       338  POPC      C210           40.3207467706       55.8354244671       -7.5673223010  MEMB      338             0.0000000000
     39956       338  POPC      H101           41.2554758900       55.2767907319       -7.4117266096  MEMB      338             0.0000000000
     39957       338  POPC      C211           39.6593627468       56.2403281170       -6.2813925591  MEMB      338             0.0000000000
     39958       338  POPC      H11R           38.6954977421       55.6923874532       -6.2103568773  MEMB      338             0.0000000000
     39959       338  POPC      H11S           39.1927469732       57.2470540351       -6.2257734278  MEMB      338             0.0000000000
     39960       338  POPC      C212           40.6488755633       56.0250300859       -5.0661252167  MEMB      338             0.0000000000
     39961       338  POPC      H12R           40.3917747109       56.7875172702       -4.3000752133  MEMB      338             0.0000000000
     39962       338  POPC      H12S           41.6935196433       56.2798344853       -5.3456148934  MEMB      338             0.0000000000
     39963       338  POPC      C213           40.6335117135       54.5873789322       -4.6244142559  MEMB      338             0.0000000000
     39964       338  POPC      H13R           41.4764455493       54.4354582001       -3.9168109957  MEMB      338             0.0000000000
     39965       338  POPC      H13S           40.9852693453       53.9779555725       -5.4841760584  MEMB      338             0.0000000000
     39966       338  POPC      C214           39.2998888293       54.1377662450       -3.9836800877  MEMB      338             0.0000000000
     39967       338  POPC      H14R           38.5495492684       53.8842242961       -4.7627994203  MEMB      338             0.0000000000
     39968       338  POPC      H14S           38.7504198870       54.8674233032       -3.3512199843  MEMB      338             0.0000000000
     39969       338  POPC      C215           39.3480621243       52.7424517502       -3.2192303442  MEMB      338             0.0000000000
     39970       338  POPC      H15R           39.9043842476       52.8779110900       -2.2671392582  MEMB      338             0.0000000000
     39971       338  POPC      H15S           39.9200730131       52.0825563894       -3.9060078807  MEMB      338             0.0000000000
     39972       338  POPC      C216           37.9077913687       52.1558220341       -3.0396798263  MEMB      338             0.0000000000
     39973       338  POPC      H16R           37.3715594312       51.9928767348       -3.9989632995  MEMB      338             0.0000000000
     39974       338  POPC      H16S           37.3236949163       52.8777897262       -2.4298322576  MEMB      338             0.0000000000
     39975       338  POPC      C217           37.9460080276       50.7726266191       -2.3857581893  MEMB      338             0.0000000000
     39976       338  POPC      H17R           38.4005687252       50.1322913982       -3.1716767651  MEMB      338             0.0000000000
     39977       338  POPC      H17S           36.8776614836       50.4696725156       -2.3514674071  MEMB      338             0.0000000000
     39978       338  POPC      C218           38.7298646110       50.5664028327       -1.1351420523  MEMB      338             0.0000000000
     39979       338  POPC      H18R           38.6518113259       49.4662520063       -1.0013632954  MEMB      338             0.0000000000
     39980       338  POPC      H18S           38.4146267529       51.1326644962       -0.2327598439  MEMB      338             0.0000000000
     39981       338  POPC      H18T           39.8075520337       50.6700768177       -1.3844669287  MEMB      338             0.0000000000
     39982       338  POPC      C33            34.6545996881       56.9781344594      -15.2858980722  MEMB      338             0.0000000000
     39983       338  POPC      H3X            35.4373232088       57.7023360494      -14.9741338925  MEMB      338             0.0000000000
     39984       338  POPC      H3Y            34.9938051089       55.9436003187      -15.5072568126  MEMB      338             0.0000000000
     39985       338  POPC      C34            33.4295338951       57.0113162155      -14.3383955744  MEMB      338             0.0000000000
     39986       338  POPC      H4X            32.5200274229       56.5261130851      -14.7527591152  MEMB      338             0.0000000000
     39987       338  POPC      H4Y            33.1365887622       58.0622986463      -14.1287760554  MEMB      338             0.0000000000
     39988       338  POPC      C35            33.8120058758       56.4007375560      -12.9402452899  MEMB      338             0.0000000000
     39989       338  POPC      H5X            32.9127047389       56.5483476297      -12.3048011815  MEMB      338             0.0000000000
     39990       338  POPC      H5Y            34.6105250399       57.0044050052      -12.4582975350  MEMB      338             0.0000000000
     39991       338  POPC      C36            34.3102772617       54.9639874262      -12.7741829237  MEMB      338             0.0000000000
     39992       338  POPC      H6X            35.1753873453       54.6841668621      -13.4126233004  MEMB      338             0.0000000000
     39993       338  POPC      H6Y            33.6091392816       54.1659927452      -13.0996529199  MEMB      338             0.0000000000
     39994       338  POPC      C37            34.9087935404       54.6868207331      -11.3392802996  MEMB      338             0.0000000000
     39995       338  POPC      H7X            35.5543580391       55.5729588866      -11.1594848038  MEMB      338             0.0000000000
     39996       338  POPC      H7Y            35.5519406412       53.8142159843      -11.5826804072  MEMB      338             0.0000000000
     39997       338  POPC      C38            33.8224581634       54.3410233141      -10.2500671781  MEMB      338             0.0000000000
     39998       338  POPC      H8X            33.2280901472       53.5131579216      -10.6924318989  MEMB      338             0.0000000000
     39999       338  POPC      H8Y            33.1158551548       55.1983564029      -10.2536847681  MEMB      338             0.0000000000
     40000       338  POPC      C39            34.3826749027       54.0297809445       -8.8437356865  MEMB      338             0.0000000000
     40001       338  POPC      H9X            35.2598297476       53.3479454742       -8.8482900396  MEMB      338             0.0000000000
     40002       338  POPC      H9Y            33.6126647533       53.6335096453       -8.1477659306  MEMB      338             0.0000000000
     40003       338  POPC      C310           34.8424581964       55.3985212357       -8.1237239777  MEMB      338             0.0000000000
     40004       338  POPC      H10X           34.0550134590       56.1599823412       -8.3092741097  MEMB      338             0.0000000000
     40005       338  POPC      H10Y           35.7295775582       55.6610445534       -8.7388839960  MEMB      338             0.0000000000
     40006       338  POPC      C311           35.1824375571       55.2527769287       -6.6974768595  MEMB      338             0.0000000000
     40007       338  POPC      H11X           36.1797607448       55.7198115972       -6.5506898795  MEMB      338             0.0000000000
     40008       338  POPC      H11Y           35.1200431121       54.1793822596       -6.4177413110  MEMB      338             0.0000000000
     40009       338  POPC      C312           34.1472542729       56.0079365584       -5.7550295632  MEMB      338             0.0000000000
     40010       338  POPC      H12X           33.1858512091       55.4843276168       -5.9443939052  MEMB      338             0.0000000000
     40011       338  POPC      H12Y           34.0568528033       57.0001096396       -6.2467010532  MEMB      338             0.0000000000
     40012       338  POPC      C313           34.5729166877       56.1013607599       -4.2746976888  MEMB      338             0.0000000000
     40013       338  POPC      H13X           33.8632400269       56.8582152594       -3.8773932002  MEMB      338             0.0000000000
     40014       338  POPC      H13Y           35.5954316654       56.5110953409       -4.1301232731  MEMB      338             0.0000000000
     40015       338  POPC      C314           34.4080472941       54.6941717728       -3.5016795009  MEMB      338             0.0000000000
     40016       338  POPC      H14X           35.0834339031       53.9482470453       -3.9726040423  MEMB      338             0.0000000000
     40017       338  POPC      H14Y           33.3758204470       54.3406598544       -3.7111016677  MEMB      338             0.0000000000
     40018       338  POPC      C315           34.5202458910       54.5974069564       -1.9476660506  MEMB      338             0.0000000000
     40019       338  POPC      H15X           34.8556859646       53.6028141810       -1.5835435636  MEMB      338             0.0000000000
     40020       338  POPC      H15Y           33.5731487466       54.8605590563       -1.4299020821  MEMB      338             0.0000000000
     40021       338  POPC      C316           35.5481079588       55.5718685409       -1.4205299904  MEMB      338             0.0000000000
     40022       338  POPC      H16X           35.5914122105       55.5069059680       -0.3122774993  MEMB      338             0.0000000000
     40023       338  POPC      H16Y           35.3033276442       56.5851645534       -1.8047641103  MEMB      338             0.0000000000
     40024       338  POPC      H16Z           36.5862781553       55.2932796179       -1.7014423193  MEMB      338             0.0000000000
     40025       339  POPC      N             -34.8277012047      -42.3220832946      -20.5608601092  MEMB      339             0.0000000000
     40026       339  POPC      C12           -34.8055040430      -42.1514824896      -19.0409411333  MEMB      339             0.0000000000
     40027       339  POPC      H12A          -35.7519657377      -41.7341445324      -18.7303943076  MEMB      339             0.0000000000
     40028       339  POPC      H12B          -33.9873435782      -41.5125268366      -18.7430330813  MEMB      339             0.0000000000
     40029       339  POPC      C13           -36.0768978203      -42.9808690335      -21.0962500635  MEMB      339             0.0000000000
     40030       339  POPC      H13A          -36.3588875571      -43.8775810763      -20.5644704816  MEMB      339             0.0000000000
     40031       339  POPC      H13B          -36.9110617066      -42.2956493664      -21.1285692354  MEMB      339             0.0000000000
     40032       339  POPC      H13C          -35.7817882916      -43.1441114756      -22.1222433134  MEMB      339             0.0000000000
     40033       339  POPC      C14           -34.8484043458      -40.8783214848      -21.2024818053  MEMB      339             0.0000000000
     40034       339  POPC      H14A          -33.9363832896      -40.3499821347      -20.9669497706  MEMB      339             0.0000000000
     40035       339  POPC      H14B          -35.0259249555      -40.9817064464      -22.2627638479  MEMB      339             0.0000000000
     40036       339  POPC      H14C          -35.6564669603      -40.3775165345      -20.6900081474  MEMB      339             0.0000000000
     40037       339  POPC      C15           -33.5520013176      -42.9323736105      -21.0309951661  MEMB      339             0.0000000000
     40038       339  POPC      H15A          -32.7238219281      -42.2523937408      -20.8962871776  MEMB      339             0.0000000000
     40039       339  POPC      H15B          -33.6114545809      -43.2115843505      -22.0725837245  MEMB      339             0.0000000000
     40040       339  POPC      H15C          -33.3029223845      -43.8061845990      -20.4472022473  MEMB      339             0.0000000000
     40041       339  POPC      C11           -34.5295541747      -43.4167293504      -18.2114322296  MEMB      339             0.0000000000
     40042       339  POPC      H11A          -34.3469331277      -43.1838779414      -17.1405676907  MEMB      339             0.0000000000
     40043       339  POPC      H11B          -33.5680686181      -43.8559006473      -18.5534775958  MEMB      339             0.0000000000
     40044       339  POPC      P             -36.9916467393      -44.1228534616      -17.5463130910  MEMB      339             0.0000000000
     40045       339  POPC      O13           -37.7754583688      -45.3082010618      -17.8683541431  MEMB      339             0.0000000000
     40046       339  POPC      O14           -37.5459896026      -42.8277786147      -18.0460183288  MEMB      339             0.0000000000
     40047       339  POPC      O12           -35.6313068344      -44.2943527168      -18.3457274935  MEMB      339             0.0000000000
     40048       339  POPC      O11           -36.4739309647      -44.0409648775      -16.0506264373  MEMB      339             0.0000000000
     40049       339  POPC      C1            -35.5603492225      -45.1035044579      -15.6507949583  MEMB      339             0.0000000000
     40050       339  POPC      HA            -34.5536443175      -44.6852755828      -15.8651562966  MEMB      339             0.0000000000
     40051       339  POPC      HB            -35.6728936741      -46.1044979955      -16.1194810326  MEMB      339             0.0000000000
     40052       339  POPC      C2            -35.4748657858      -45.2294510374      -14.1445087817  MEMB      339             0.0000000000
     40053       339  POPC      HS            -36.3929816758      -45.6237613628      -13.6588097654  MEMB      339             0.0000000000
     40054       339  POPC      O21           -35.1153970493      -43.8909288378      -13.5916221319  MEMB      339             0.0000000000
     40055       339  POPC      C21           -35.5761199869      -43.7271860569      -12.3390932964  MEMB      339             0.0000000000
     40056       339  POPC      O22           -36.2598037152      -44.5311290238      -11.7251709395  MEMB      339             0.0000000000
     40057       339  POPC      C22           -35.0411313371      -42.3068060159      -11.9293247700  MEMB      339             0.0000000000
     40058       339  POPC      H2R           -35.9632013490      -41.7154791465      -11.7437435674  MEMB      339             0.0000000000
     40059       339  POPC      H2S           -34.3281209047      -41.7796932301      -12.5987195816  MEMB      339             0.0000000000
     40060       339  POPC      C3            -34.2939938374      -46.1766402384      -13.7784662603  MEMB      339             0.0000000000
     40061       339  POPC      HX            -33.2837099349      -45.7408012630      -13.9323887959  MEMB      339             0.0000000000
     40062       339  POPC      HY            -34.4584006723      -47.0787444806      -14.4057618796  MEMB      339             0.0000000000
     40063       339  POPC      O31           -34.3688231467      -46.5016808243      -12.4000207481  MEMB      339             0.0000000000
     40064       339  POPC      C31           -35.2063549066      -47.4777069685      -11.9416511822  MEMB      339             0.0000000000
     40065       339  POPC      O32           -35.8891762366      -48.1833732363      -12.6443072494  MEMB      339             0.0000000000
     40066       339  POPC      C32           -34.8545915545      -47.5176974324      -10.4652089377  MEMB      339             0.0000000000
     40067       339  POPC      H2X           -34.1314960587      -46.7179888838      -10.1970292859  MEMB      339             0.0000000000
     40068       339  POPC      H2Y           -34.2250356267      -48.4035054427      -10.2342871959  MEMB      339             0.0000000000
     40069       339  POPC      C23           -34.2003146850      -42.4860165231      -10.5945917741  MEMB      339             0.0000000000
     40070       339  POPC      H3R           -34.8187282858      -43.1906361301       -9.9984394973  MEMB      339             0.0000000000
     40071       339  POPC      H3S           -34.1977626379      -41.5139210726      -10.0566840995  MEMB      339             0.0000000000
     40072       339  POPC      C24           -32.7863892647      -42.9829258047      -10.9323852348  MEMB      339             0.0000000000
     40073       339  POPC      H4R           -32.1879497086      -42.1663295619      -11.3899461461  MEMB      339             0.0000000000
     40074       339  POPC      H4S           -32.8526967305      -43.8860599943      -11.5760258905  MEMB      339             0.0000000000
     40075       339  POPC      C25           -31.9136208543      -43.3652459597       -9.6485565043  MEMB      339             0.0000000000
     40076       339  POPC      H5R           -32.0342655565      -42.5745639993       -8.8774619733  MEMB      339             0.0000000000
     40077       339  POPC      H5S           -30.8911550251      -43.3151461602      -10.0802682810  MEMB      339             0.0000000000
     40078       339  POPC      C26           -32.2741821915      -44.6452897096       -9.0066339183  MEMB      339             0.0000000000
     40079       339  POPC      H6R           -32.1185354855      -45.4373275383       -9.7700277654  MEMB      339             0.0000000000
     40080       339  POPC      H6S           -33.3377108155      -44.8325238836       -8.7455367170  MEMB      339             0.0000000000
     40081       339  POPC      C27           -31.3887307068      -45.1828380737       -7.8252661115  MEMB      339             0.0000000000
     40082       339  POPC      H7R           -30.3912546573      -45.4538157760       -8.2326155393  MEMB      339             0.0000000000
     40083       339  POPC      H7S           -31.8170019081      -46.1394295666       -7.4567050413  MEMB      339             0.0000000000
     40084       339  POPC      C28           -31.3755618893      -44.1446945849       -6.6798530191  MEMB      339             0.0000000000
     40085       339  POPC      H8R           -30.9634665609      -43.2213240059       -7.1401625802  MEMB      339             0.0000000000
     40086       339  POPC      H8S           -30.6811350438      -44.5314013240       -5.9036113631  MEMB      339             0.0000000000
     40087       339  POPC      C29           -32.6850819662      -43.8017885901       -6.0738838961  MEMB      339             0.0000000000
     40088       339  POPC      H91           -33.4427879040      -43.3279403024       -6.7152482861  MEMB      339             0.0000000000
     40089       339  POPC      C210          -33.1446190747      -44.1669967179       -4.8741204835  MEMB      339             0.0000000000
     40090       339  POPC      H101          -34.1934807417      -43.9457678986       -4.6272462950  MEMB      339             0.0000000000
     40091       339  POPC      C211          -32.3345459582      -44.9808602479       -3.9508225239  MEMB      339             0.0000000000
     40092       339  POPC      H11R          -32.6417159661      -44.8823122944       -2.8876872679  MEMB      339             0.0000000000
     40093       339  POPC      H11S          -31.2798642367      -44.6600068029       -3.8129066383  MEMB      339             0.0000000000
     40094       339  POPC      C212          -32.5729918363      -46.5038336351       -4.1366640044  MEMB      339             0.0000000000
     40095       339  POPC      H12R          -31.9773197825      -46.9229936471       -3.2977355443  MEMB      339             0.0000000000
     40096       339  POPC      H12S          -32.2307979565      -47.0496064566       -5.0418467397  MEMB      339             0.0000000000
     40097       339  POPC      C213          -34.0389111952      -46.8934251709       -3.9106865187  MEMB      339             0.0000000000
     40098       339  POPC      H13R          -34.6257948743      -46.6482091961       -4.8215969068  MEMB      339             0.0000000000
     40099       339  POPC      H13S          -34.5213575646      -46.4624740452       -3.0074439683  MEMB      339             0.0000000000
     40100       339  POPC      C214          -34.2564251614      -48.4262633108       -3.7587474423  MEMB      339             0.0000000000
     40101       339  POPC      H14R          -33.8106226809      -48.8114140625       -4.7006823618  MEMB      339             0.0000000000
     40102       339  POPC      H14S          -35.3131802385      -48.7275301736       -3.9225407184  MEMB      339             0.0000000000
     40103       339  POPC      C215          -33.5685673542      -49.0298799582       -2.5248078112  MEMB      339             0.0000000000
     40104       339  POPC      H15R          -32.4779399556      -48.8520883369       -2.6398877900  MEMB      339             0.0000000000
     40105       339  POPC      H15S          -33.8999177248      -50.0843705516       -2.6369572825  MEMB      339             0.0000000000
     40106       339  POPC      C216          -34.2308079255      -48.5778036499       -1.1922303801  MEMB      339             0.0000000000
     40107       339  POPC      H16R          -35.3294794950      -48.7361707554       -1.2387241990  MEMB      339             0.0000000000
     40108       339  POPC      H16S          -34.0744789341      -47.4874843090       -1.0470199277  MEMB      339             0.0000000000
     40109       339  POPC      C217          -33.7137327885      -49.3316721722       -0.0336062611  MEMB      339             0.0000000000
     40110       339  POPC      H17R          -32.6058762481      -49.3809076230        0.0338507711  MEMB      339             0.0000000000
     40111       339  POPC      H17S          -34.2120777434      -50.3224029078       -0.1001320158  MEMB      339             0.0000000000
     40112       339  POPC      C218          -34.2045245429      -48.6670168390        1.2991908038  MEMB      339             0.0000000000
     40113       339  POPC      H18R          -33.9656360869      -49.1434007440        2.2740299368  MEMB      339             0.0000000000
     40114       339  POPC      H18S          -35.3106756429      -48.5757674714        1.2499523393  MEMB      339             0.0000000000
     40115       339  POPC      H18T          -33.7385034303      -47.6634704458        1.1989894996  MEMB      339             0.0000000000
     40116       339  POPC      C33           -36.1351047347      -47.6126422955       -9.6045836568  MEMB      339             0.0000000000
     40117       339  POPC      H3X           -36.6865756354      -48.5448517141       -9.8519423419  MEMB      339             0.0000000000
     40118       339  POPC      H3Y           -36.7018082295      -46.6865305051       -9.8401365294  MEMB      339             0.0000000000
     40119       339  POPC      C34           -35.7732539956      -47.4604790785       -8.0879873696  MEMB      339             0.0000000000
     40120       339  POPC      H4X           -35.2588739654      -46.4817712667       -7.9790597532  MEMB      339             0.0000000000
     40121       339  POPC      H4Y           -35.1634812919      -48.3311469875       -7.7648233448  MEMB      339             0.0000000000
     40122       339  POPC      C35           -37.1045305317      -47.4371814262       -7.3628868737  MEMB      339             0.0000000000
     40123       339  POPC      H5X           -37.4018735966      -48.4123054923       -6.9212521046  MEMB      339             0.0000000000
     40124       339  POPC      H5Y           -37.9678796961      -47.0731467865       -7.9599025722  MEMB      339             0.0000000000
     40125       339  POPC      C36           -37.1419029068      -46.5132986422       -6.1036276309  MEMB      339             0.0000000000
     40126       339  POPC      H6X           -36.3377535816      -46.8757015298       -5.4281066470  MEMB      339             0.0000000000
     40127       339  POPC      H6Y           -38.1170012695      -46.6517665534       -5.5894959157  MEMB      339             0.0000000000
     40128       339  POPC      C37           -36.9349434587      -44.9760782444       -6.3838715531  MEMB      339             0.0000000000
     40129       339  POPC      H7X           -35.9068005715      -44.9694645998       -6.8048221706  MEMB      339             0.0000000000
     40130       339  POPC      H7Y           -37.0836819132      -44.3012494893       -5.5139269164  MEMB      339             0.0000000000
     40131       339  POPC      C38           -37.7453375748      -44.2944814226       -7.5010809693  MEMB      339             0.0000000000
     40132       339  POPC      H8X           -38.7975441482      -44.5693343483       -7.2738401485  MEMB      339             0.0000000000
     40133       339  POPC      H8Y           -37.6615457735      -44.6695098260       -8.5435073798  MEMB      339             0.0000000000
     40134       339  POPC      C39           -37.6348645212      -42.7356858230       -7.5128113355  MEMB      339             0.0000000000
     40135       339  POPC      H9X           -38.0819758715      -42.3096967911       -8.4363617937  MEMB      339             0.0000000000
     40136       339  POPC      H9Y           -36.5517268800      -42.5264441743       -7.6445375170  MEMB      339             0.0000000000
     40137       339  POPC      C310          -38.2488074190      -41.9769785282       -6.3672596119  MEMB      339             0.0000000000
     40138       339  POPC      H10X          -38.3336954935      -42.7435755411       -5.5676076326  MEMB      339             0.0000000000
     40139       339  POPC      H10Y          -39.3177193912      -41.7448337849       -6.5618293778  MEMB      339             0.0000000000
     40140       339  POPC      C311          -37.5969606819      -40.6186707025       -5.9382753678  MEMB      339             0.0000000000
     40141       339  POPC      H11X          -37.9116412141      -40.3378308684       -4.9104488676  MEMB      339             0.0000000000
     40142       339  POPC      H11Y          -37.8528995184      -39.7640728961       -6.6004528207  MEMB      339             0.0000000000
     40143       339  POPC      C312          -36.0876642279      -40.4348159835       -5.8092938333  MEMB      339             0.0000000000
     40144       339  POPC      H12X          -35.8906950235      -39.3946236268       -5.4723605634  MEMB      339             0.0000000000
     40145       339  POPC      H12Y          -35.5751504179      -40.5055320708       -6.7924777840  MEMB      339             0.0000000000
     40146       339  POPC      C313          -35.3756326954      -41.3792372240       -4.8270450282  MEMB      339             0.0000000000
     40147       339  POPC      H13X          -34.2916238803      -41.2728878237       -5.0459874920  MEMB      339             0.0000000000
     40148       339  POPC      H13Y          -35.6135974608      -42.4523594928       -4.9886077985  MEMB      339             0.0000000000
     40149       339  POPC      C314          -35.6976859739      -41.0069468722       -3.4098150276  MEMB      339             0.0000000000
     40150       339  POPC      H14X          -36.5731175896      -41.6176992905       -3.1017226430  MEMB      339             0.0000000000
     40151       339  POPC      H14Y          -35.8720317444      -39.9388219964       -3.1587501630  MEMB      339             0.0000000000
     40152       339  POPC      C315          -34.4561561270      -41.5124555242       -2.5138583356  MEMB      339             0.0000000000
     40153       339  POPC      H15X          -33.4361608227      -41.1597329157       -2.7775188021  MEMB      339             0.0000000000
     40154       339  POPC      H15Y          -34.3268149129      -42.6042746918       -2.6736180631  MEMB      339             0.0000000000
     40155       339  POPC      C316          -34.6150160170      -41.2389495923       -1.0422569528  MEMB      339             0.0000000000
     40156       339  POPC      H16X          -33.7819781564      -41.5178630660       -0.3621281581  MEMB      339             0.0000000000
     40157       339  POPC      H16Y          -35.4712847054      -41.8222109755       -0.6410955337  MEMB      339             0.0000000000
     40158       339  POPC      H16Z          -34.8100989024      -40.1637933688       -0.8415038979  MEMB      339             0.0000000000
     40159       340  POPE      N              46.8021412060      -33.4434233775      -17.9637001983  MEMB      340             0.0000000000
     40160       340  POPE      HN1            46.6987392646      -34.4086166068      -17.5904572967  MEMB      340             0.0000000000
     40161       340  POPE      HN2            47.6904815677      -33.2941851823      -18.4834880279  MEMB      340             0.0000000000
     40162       340  POPE      HN3            46.7556662939      -32.8064318410      -17.1429188750  MEMB      340             0.0000000000
     40163       340  POPE      C12            45.6222273422      -33.0817526372      -18.7850840091  MEMB      340             0.0000000000
     40164       340  POPE      H12A           44.7533508138      -32.9248874300      -18.1107192688  MEMB      340             0.0000000000
     40165       340  POPE      H12B           45.4721276328      -33.9636735268      -19.4438757812  MEMB      340             0.0000000000
     40166       340  POPE      C11            45.7959175536      -31.7362768305      -19.5891865653  MEMB      340             0.0000000000
     40167       340  POPE      H11A           44.7852674346      -31.5835616905      -20.0246006929  MEMB      340             0.0000000000
     40168       340  POPE      H11B           46.6507517552      -31.8465805148      -20.2901948496  MEMB      340             0.0000000000
     40169       340  POPE      P              46.5662241942      -29.4075608405      -19.2176541104  MEMB      340             0.0000000000
     40170       340  POPE      O13            45.4224941659      -28.6601939486      -19.8549123856  MEMB      340             0.0000000000
     40171       340  POPE      O14            47.7970277780      -29.4569264807      -20.0550805782  MEMB      340             0.0000000000
     40172       340  POPE      O11            46.9083936201      -28.6196424513      -17.9081849618  MEMB      340             0.0000000000
     40173       340  POPE      O12            46.1181701402      -30.7838370060      -18.6261971923  MEMB      340             0.0000000000
     40174       340  POPE      C1             47.7756381152      -29.0893570228      -16.8285434192  MEMB      340             0.0000000000
     40175       340  POPE      HA             48.1405156261      -28.1257160560      -16.4131144407  MEMB      340             0.0000000000
     40176       340  POPE      HB             48.5915136206      -29.7124491180      -17.2533073850  MEMB      340             0.0000000000
     40177       340  POPE      C2             46.9045138668      -29.7115343292      -15.7282838759  MEMB      340             0.0000000000
     40178       340  POPE      HS             46.8082140547      -30.7827173807      -16.0068772147  MEMB      340             0.0000000000
     40179       340  POPE      O21            45.5609961390      -29.1861375119      -15.6673309585  MEMB      340             0.0000000000
     40180       340  POPE      C21            44.6195522012      -30.0711457345      -15.2226451841  MEMB      340             0.0000000000
     40181       340  POPE      O22            44.7833909791      -31.2130322817      -14.9008346466  MEMB      340             0.0000000000
     40182       340  POPE      C22            43.1854853884      -29.3712261289      -15.2357549910  MEMB      340             0.0000000000
     40183       340  POPE      H2R            42.5138598399      -30.1422888166      -14.8013560555  MEMB      340             0.0000000000
     40184       340  POPE      H2S            42.7867483455      -29.1757884899      -16.2541525581  MEMB      340             0.0000000000
     40185       340  POPE      C3             47.6147631754      -29.6562342882      -14.4123507891  MEMB      340             0.0000000000
     40186       340  POPE      HX             48.5725025313      -30.2157873014      -14.4752526156  MEMB      340             0.0000000000
     40187       340  POPE      HY             46.9030749096      -30.2008323023      -13.7556668446  MEMB      340             0.0000000000
     40188       340  POPE      O31            47.6874643908      -28.3186286199      -13.8333581221  MEMB      340             0.0000000000
     40189       340  POPE      C31            48.9317066213      -27.8303464328      -13.6989148831  MEMB      340             0.0000000000
     40190       340  POPE      O32            50.0047099164      -28.2382638301      -14.1451666433  MEMB      340             0.0000000000
     40191       340  POPE      C32            48.7594016402      -26.7103882000      -12.6934358383  MEMB      340             0.0000000000
     40192       340  POPE      H2X            48.6136271592      -27.1423652384      -11.6802893149  MEMB      340             0.0000000000
     40193       340  POPE      H2Y            47.8814384796      -26.1131199165      -13.0201961917  MEMB      340             0.0000000000
     40194       340  POPE      C23            43.1032425116      -28.1261240836      -14.3326638187  MEMB      340             0.0000000000
     40195       340  POPE      H3R            42.1393871394      -27.5860812272      -14.4495292616  MEMB      340             0.0000000000
     40196       340  POPE      H3S            43.9045023154      -27.3850772021      -14.5403977162  MEMB      340             0.0000000000
     40197       340  POPE      C24            43.0091226801      -28.3714706673      -12.7856881770  MEMB      340             0.0000000000
     40198       340  POPE      H4R            43.1304594364      -29.4718886279      -12.6925282304  MEMB      340             0.0000000000
     40199       340  POPE      H4S            42.0655301411      -27.9432444570      -12.3849683238  MEMB      340             0.0000000000
     40200       340  POPE      C25            44.1286235792      -27.7339549355      -11.9269020408  MEMB      340             0.0000000000
     40201       340  POPE      H5R            45.1700638513      -28.0749496399      -12.1097840727  MEMB      340             0.0000000000
     40202       340  POPE      H5S            43.7953329346      -28.0111291415      -10.9039589488  MEMB      340             0.0000000000
     40203       340  POPE      C26            44.0738909675      -26.1617196518      -11.9521014530  MEMB      340             0.0000000000
     40204       340  POPE      H6R            43.0206363846      -25.9597619596      -11.6619486541  MEMB      340             0.0000000000
     40205       340  POPE      H6S            44.2638340447      -25.7936843576      -12.9830195161  MEMB      340             0.0000000000
     40206       340  POPE      C27            44.8872104767      -25.4402268855      -10.9100477289  MEMB      340             0.0000000000
     40207       340  POPE      H7R            45.1624546842      -24.4398773992      -11.3073663845  MEMB      340             0.0000000000
     40208       340  POPE      H7S            45.7925552104      -26.0632114501      -10.7470678125  MEMB      340             0.0000000000
     40209       340  POPE      C28            44.2670350114      -25.3076978570       -9.5049921905  MEMB      340             0.0000000000
     40210       340  POPE      H8R            43.9091087508      -26.3176305531       -9.2113162925  MEMB      340             0.0000000000
     40211       340  POPE      H8S            43.2817443484      -24.7947335565       -9.5247679545  MEMB      340             0.0000000000
     40212       340  POPE      C29            45.1607268080      -24.5926687648       -8.5330040289  MEMB      340             0.0000000000
     40213       340  POPE      H91            44.8485869076      -23.5784284566       -8.2433739948  MEMB      340             0.0000000000
     40214       340  POPE      C210           46.1414755181      -25.1947066740       -7.8315128051  MEMB      340             0.0000000000
     40215       340  POPE      H101           46.7421943782      -24.7127859561       -7.0460891105  MEMB      340             0.0000000000
     40216       340  POPE      C211           46.4763159440      -26.6708934344       -7.9383817444  MEMB      340             0.0000000000
     40217       340  POPE      H11R           47.5643691870      -26.8536268606       -8.0690321419  MEMB      340             0.0000000000
     40218       340  POPE      H11S           46.0367722760      -27.1266042649       -8.8513167957  MEMB      340             0.0000000000
     40219       340  POPE      C212           45.9940735445      -27.3716772231       -6.6291779573  MEMB      340             0.0000000000
     40220       340  POPE      H12R           44.8966906511      -27.3530527450       -6.4567689903  MEMB      340             0.0000000000
     40221       340  POPE      H12S           46.5831590632      -26.8433281610       -5.8493404811  MEMB      340             0.0000000000
     40222       340  POPE      C213           46.3213370706      -28.8533676584       -6.6755373583  MEMB      340             0.0000000000
     40223       340  POPE      H13R           47.4049590383      -28.8617000747       -6.9205170447  MEMB      340             0.0000000000
     40224       340  POPE      H13S           45.8481708160      -29.4003228778       -7.5189080288  MEMB      340             0.0000000000
     40225       340  POPE      C214           45.9854983093      -29.5831964609       -5.4140349783  MEMB      340             0.0000000000
     40226       340  POPE      H14R           46.3390574373      -30.6226069520       -5.5841598989  MEMB      340             0.0000000000
     40227       340  POPE      H14S           44.8750105345      -29.5802472630       -5.4476354798  MEMB      340             0.0000000000
     40228       340  POPE      C215           46.4884031950      -29.0177850653       -4.0784962154  MEMB      340             0.0000000000
     40229       340  POPE      H15R           46.1454792087      -27.9852841701       -3.8534051618  MEMB      340             0.0000000000
     40230       340  POPE      H15S           47.5813302314      -28.8251491231       -4.1306776557  MEMB      340             0.0000000000
     40231       340  POPE      C216           46.1242266653      -29.9981403663       -2.9400430489  MEMB      340             0.0000000000
     40232       340  POPE      H16R           46.6297025282      -30.9736191033       -3.1051376655  MEMB      340             0.0000000000
     40233       340  POPE      H16S           45.0202916040      -30.1225680005       -2.9529204978  MEMB      340             0.0000000000
     40234       340  POPE      C217           46.6137737233      -29.4481927965       -1.6061308623  MEMB      340             0.0000000000
     40235       340  POPE      H17R           46.2793870322      -30.2225889137       -0.8830701552  MEMB      340             0.0000000000
     40236       340  POPE      H17S           46.0344362413      -28.5467400596       -1.3127505123  MEMB      340             0.0000000000
     40237       340  POPE      C218           48.1136346108      -29.3196236968       -1.4963037273  MEMB      340             0.0000000000
     40238       340  POPE      H18R           48.3474029348      -28.8719566452       -0.5067255382  MEMB      340             0.0000000000
     40239       340  POPE      H18S           48.4443268527      -28.6046213675       -2.2797172359  MEMB      340             0.0000000000
     40240       340  POPE      H18T           48.6661439138      -30.2806441365       -1.5704310374  MEMB      340             0.0000000000
     40241       340  POPE      C33            50.0904509947      -25.9023289616      -12.6794896841  MEMB      340             0.0000000000
     40242       340  POPE      H3X            50.3082463475      -25.3879302202      -13.6398440124  MEMB      340             0.0000000000
     40243       340  POPE      H3Y            50.9591653054      -26.5642687092      -12.4757926917  MEMB      340             0.0000000000
     40244       340  POPE      C34            50.1179696663      -24.8778231251      -11.5652135315  MEMB      340             0.0000000000
     40245       340  POPE      H4X            49.3305678923      -24.1080948745      -11.7129903660  MEMB      340             0.0000000000
     40246       340  POPE      H4Y            51.0219337145      -24.2320346053      -11.5765087564  MEMB      340             0.0000000000
     40247       340  POPE      C35            49.8144932542      -25.4422184102      -10.1718898835  MEMB      340             0.0000000000
     40248       340  POPE      H5X            48.8459529110      -25.9863493859      -10.1849988901  MEMB      340             0.0000000000
     40249       340  POPE      H5Y            49.6113136435      -24.5346459554       -9.5641470211  MEMB      340             0.0000000000
     40250       340  POPE      C36            50.9191183068      -26.3073165682       -9.5660807139  MEMB      340             0.0000000000
     40251       340  POPE      H6X            51.8482159724      -25.7307577357       -9.3694117018  MEMB      340             0.0000000000
     40252       340  POPE      H6Y            51.0609524586      -27.1317218406      -10.2972160382  MEMB      340             0.0000000000
     40253       340  POPE      C37            50.6359248114      -27.0213233238       -8.2275761276  MEMB      340             0.0000000000
     40254       340  POPE      H7X            51.3510078143      -27.8565120535       -8.0680856377  MEMB      340             0.0000000000
     40255       340  POPE      H7Y            49.5839164480      -27.3675685595       -8.1397478051  MEMB      340             0.0000000000
     40256       340  POPE      C38            50.7221129787      -26.1228855829       -7.0178525825  MEMB      340             0.0000000000
     40257       340  POPE      H8X            49.9191110628      -25.3568614481       -7.0699647350  MEMB      340             0.0000000000
     40258       340  POPE      H8Y            51.6893898341      -25.5774384654       -7.0522630958  MEMB      340             0.0000000000
     40259       340  POPE      C39            50.6873850638      -26.8419073320       -5.7115658612  MEMB      340             0.0000000000
     40260       340  POPE      H9X            51.5558978450      -27.5346415169       -5.7227773165  MEMB      340             0.0000000000
     40261       340  POPE      H9Y            49.8152497143      -27.5295961296       -5.6835472215  MEMB      340             0.0000000000
     40262       340  POPE      C310           50.8996816013      -25.9623999729       -4.4833208219  MEMB      340             0.0000000000
     40263       340  POPE      H10X           51.7719470719      -25.2912491130       -4.3315622339  MEMB      340             0.0000000000
     40264       340  POPE      H10Y           50.9664238058      -26.6489930353       -3.6124266356  MEMB      340             0.0000000000
     40265       340  POPE      C311           49.5348001702      -25.2897958901       -4.2060223768  MEMB      340             0.0000000000
     40266       340  POPE      H11X           48.6447110460      -25.8814522935       -4.5093462458  MEMB      340             0.0000000000
     40267       340  POPE      H11Y           49.4070517293      -24.4373337611       -4.9069573888  MEMB      340             0.0000000000
     40268       340  POPE      C312           49.3539078733      -24.9996815501       -2.7217885777  MEMB      340             0.0000000000
     40269       340  POPE      H12X           50.2592326907      -24.5193945167       -2.2927962874  MEMB      340             0.0000000000
     40270       340  POPE      H12Y           49.2642214319      -26.0031071366       -2.2533715034  MEMB      340             0.0000000000
     40271       340  POPE      C313           48.0882952397      -24.2296829393       -2.4583955980  MEMB      340             0.0000000000
     40272       340  POPE      H13X           48.0020934125      -23.3629848311       -3.1481243714  MEMB      340             0.0000000000
     40273       340  POPE      H13Y           48.0960867291      -23.6304080933       -1.5229131228  MEMB      340             0.0000000000
     40274       340  POPE      C314           46.7954368587      -24.9418490316       -2.5470682846  MEMB      340             0.0000000000
     40275       340  POPE      H14X           46.6208483697      -25.7614763705       -1.8176498408  MEMB      340             0.0000000000
     40276       340  POPE      H14Y           46.6569117678      -25.3343686365       -3.5771450995  MEMB      340             0.0000000000
     40277       340  POPE      C315           45.6512659726      -23.9775441563       -2.1575562704  MEMB      340             0.0000000000
     40278       340  POPE      H15X           45.6109528392      -23.1549774992       -2.9032650361  MEMB      340             0.0000000000
     40279       340  POPE      H15Y           45.9080632015      -23.4423967686       -1.2184121299  MEMB      340             0.0000000000
     40280       340  POPE      C316           44.3107126341      -24.6988788547       -1.9889872286  MEMB      340             0.0000000000
     40281       340  POPE      H16X           44.5005104278      -25.5909207308       -1.3545124821  MEMB      340             0.0000000000
     40282       340  POPE      H16Y           43.9720448533      -24.9805718624       -3.0089249663  MEMB      340             0.0000000000
     40283       340  POPE      H16Z           43.5670946909      -23.9826846331       -1.5785987400  MEMB      340             0.0000000000
     40284       341  POPE      N             -38.1695875519       55.4290066417      -19.9249896840  MEMB      341             0.0000000000
     40285       341  POPE      HN1           -38.9535028537       55.9817237985      -20.3269603635  MEMB      341             0.0000000000
     40286       341  POPE      HN2           -37.4239148241       56.1059757038      -19.6655960490  MEMB      341             0.0000000000
     40287       341  POPE      HN3           -37.7856572193       54.7609780007      -20.6235133205  MEMB      341             0.0000000000
     40288       341  POPE      C12           -38.4751581788       54.6523271742      -18.6498992608  MEMB      341             0.0000000000
     40289       341  POPE      H12A          -39.0068454969       55.3606464552      -17.9791433157  MEMB      341             0.0000000000
     40290       341  POPE      H12B          -37.5222261333       54.3463192290      -18.1676124308  MEMB      341             0.0000000000
     40291       341  POPE      C11           -39.3933229285       53.4000258607      -18.8364901506  MEMB      341             0.0000000000
     40292       341  POPE      H11A          -40.2918039845       53.7113991817      -19.4110330733  MEMB      341             0.0000000000
     40293       341  POPE      H11B          -39.6425609435       53.1482319967      -17.7834938879  MEMB      341             0.0000000000
     40294       341  POPE      P             -37.7855707785       51.3061179646      -18.9342919435  MEMB      341             0.0000000000
     40295       341  POPE      O13           -36.5854257971       52.0247256722      -18.4045405838  MEMB      341             0.0000000000
     40296       341  POPE      O14           -37.4956229911       50.2557434829      -19.9354458375  MEMB      341             0.0000000000
     40297       341  POPE      O11           -38.6646091998       50.7755931820      -17.6842320808  MEMB      341             0.0000000000
     40298       341  POPE      O12           -38.7436601789       52.3660296231      -19.6301104560  MEMB      341             0.0000000000
     40299       341  POPE      C1            -37.9434050606       50.6412344710      -16.5168455762  MEMB      341             0.0000000000
     40300       341  POPE      HA            -37.7752459520       51.6785554822      -16.1562786145  MEMB      341             0.0000000000
     40301       341  POPE      HB            -36.9993957446       50.0558772056      -16.5397405159  MEMB      341             0.0000000000
     40302       341  POPE      C2            -38.7641952575       49.8931715140      -15.4008398292  MEMB      341             0.0000000000
     40303       341  POPE      HS            -38.8655658754       48.8212354028      -15.6746971091  MEMB      341             0.0000000000
     40304       341  POPE      O21           -40.0963726108       50.5127165713      -15.3025448036  MEMB      341             0.0000000000
     40305       341  POPE      C21           -40.9922747445       49.8385888496      -14.6699630259  MEMB      341             0.0000000000
     40306       341  POPE      O22           -41.0109356896       48.6633088149      -14.4215899502  MEMB      341             0.0000000000
     40307       341  POPE      C22           -42.2586223859       50.6539474951      -14.2866338081  MEMB      341             0.0000000000
     40308       341  POPE      H2R           -43.0243995613       49.8630198071      -14.1371680973  MEMB      341             0.0000000000
     40309       341  POPE      H2S           -42.4941809550       51.2462099953      -15.1966105980  MEMB      341             0.0000000000
     40310       341  POPE      C3            -38.0903410216       49.9468853594      -14.0644130668  MEMB      341             0.0000000000
     40311       341  POPE      HX            -37.0386645654       49.6042680477      -14.1688697115  MEMB      341             0.0000000000
     40312       341  POPE      HY            -38.5928353386       49.3248896470      -13.2930881673  MEMB      341             0.0000000000
     40313       341  POPE      O31           -38.2211723720       51.4122013629      -13.6809020458  MEMB      341             0.0000000000
     40314       341  POPE      C31           -37.0724105988       52.0625163582      -13.3221725587  MEMB      341             0.0000000000
     40315       341  POPE      O32           -35.9539203749       51.5877432694      -13.2712588276  MEMB      341             0.0000000000
     40316       341  POPE      C32           -37.3381237185       53.5784706118      -13.2767982563  MEMB      341             0.0000000000
     40317       341  POPE      H2X           -38.3321732921       53.7656446413      -13.7363113620  MEMB      341             0.0000000000
     40318       341  POPE      H2Y           -36.6419771782       54.2565221249      -13.8152654490  MEMB      341             0.0000000000
     40319       341  POPE      C23           -42.3235764768       51.4893300430      -13.0016099237  MEMB      341             0.0000000000
     40320       341  POPE      H3R           -43.2554270183       52.0752492196      -13.1521905379  MEMB      341             0.0000000000
     40321       341  POPE      H3S           -41.5693776384       52.2970352498      -12.8870793861  MEMB      341             0.0000000000
     40322       341  POPE      C24           -42.4419820571       50.7045716892      -11.7045060195  MEMB      341             0.0000000000
     40323       341  POPE      H4R           -43.2780592421       49.9932073850      -11.8755536426  MEMB      341             0.0000000000
     40324       341  POPE      H4S           -42.7240454922       51.4630201686      -10.9432459336  MEMB      341             0.0000000000
     40325       341  POPE      C25           -41.1480234779       50.0623149132      -11.1084887415  MEMB      341             0.0000000000
     40326       341  POPE      H5R           -40.2609371151       50.7310879419      -11.0965982983  MEMB      341             0.0000000000
     40327       341  POPE      H5S           -40.9635473696       49.1524822583      -11.7188117587  MEMB      341             0.0000000000
     40328       341  POPE      C26           -41.3021315199       49.7020336719       -9.6573311657  MEMB      341             0.0000000000
     40329       341  POPE      H6R           -42.0906102418       48.9199378290       -9.6881324114  MEMB      341             0.0000000000
     40330       341  POPE      H6S           -41.5936041197       50.6014659994       -9.0739046417  MEMB      341             0.0000000000
     40331       341  POPE      C27           -40.0751488907       49.0110989234       -9.1345910965  MEMB      341             0.0000000000
     40332       341  POPE      H7R           -39.7377654462       48.2561999016       -9.8766291917  MEMB      341             0.0000000000
     40333       341  POPE      H7S           -40.4431968192       48.3881405298       -8.2915107817  MEMB      341             0.0000000000
     40334       341  POPE      C28           -38.9380135473       49.9946913108       -8.6993797155  MEMB      341             0.0000000000
     40335       341  POPE      H8R           -39.3013028374       50.7952053851       -8.0200274118  MEMB      341             0.0000000000
     40336       341  POPE      H8S           -38.7677247926       50.4793812461       -9.6844681620  MEMB      341             0.0000000000
     40337       341  POPE      C29           -37.5774443345       49.5701830660       -8.1459564019  MEMB      341             0.0000000000
     40338       341  POPE      H91           -37.4709177521       48.4869145328       -7.9872703700  MEMB      341             0.0000000000
     40339       341  POPE      C210          -36.5177709530       50.3547745645       -7.8425909001  MEMB      341             0.0000000000
     40340       341  POPE      H101          -35.7107031503       49.7428313812       -7.4134441618  MEMB      341             0.0000000000
     40341       341  POPE      C211          -36.1890822830       51.8218439589       -7.9906595836  MEMB      341             0.0000000000
     40342       341  POPE      H11R          -36.8351279376       52.3242520535       -8.7420128216  MEMB      341             0.0000000000
     40343       341  POPE      H11S          -35.1445938202       51.9660304544       -8.3407659731  MEMB      341             0.0000000000
     40344       341  POPE      C212          -36.2842448637       52.5634999096       -6.6585662592  MEMB      341             0.0000000000
     40345       341  POPE      H12R          -36.0861513716       53.6513834320       -6.7662202115  MEMB      341             0.0000000000
     40346       341  POPE      H12S          -35.6584665209       52.1584737851       -5.8347481043  MEMB      341             0.0000000000
     40347       341  POPE      C213          -37.7043405838       52.2537680436       -5.9744377447  MEMB      341             0.0000000000
     40348       341  POPE      H13R          -37.6595481113       51.1969200221       -5.6347516003  MEMB      341             0.0000000000
     40349       341  POPE      H13S          -38.4414157865       52.1515176304       -6.7994141827  MEMB      341             0.0000000000
     40350       341  POPE      C214          -38.1304514474       53.0463490503       -4.7832566877  MEMB      341             0.0000000000
     40351       341  POPE      H14R          -37.3396002286       52.9288982068       -4.0118420981  MEMB      341             0.0000000000
     40352       341  POPE      H14S          -39.1705224329       52.7569429527       -4.5209266905  MEMB      341             0.0000000000
     40353       341  POPE      C215          -38.1522816729       54.5936725790       -5.1261969982  MEMB      341             0.0000000000
     40354       341  POPE      H15R          -39.0381653644       54.6885193143       -5.7899250294  MEMB      341             0.0000000000
     40355       341  POPE      H15S          -37.2963288506       54.9443336125       -5.7415862649  MEMB      341             0.0000000000
     40356       341  POPE      C216          -38.0777852748       55.4253503215       -3.8178278966  MEMB      341             0.0000000000
     40357       341  POPE      H16R          -38.2883279268       56.4849715665       -4.0770490397  MEMB      341             0.0000000000
     40358       341  POPE      H16S          -37.0799436507       55.3162366179       -3.3416687392  MEMB      341             0.0000000000
     40359       341  POPE      C217          -39.1439056021       55.0638952150       -2.7267240795  MEMB      341             0.0000000000
     40360       341  POPE      H17R          -38.8872987494       55.4934253016       -1.7347673464  MEMB      341             0.0000000000
     40361       341  POPE      H17S          -39.1526317308       53.9654600077       -2.5603354239  MEMB      341             0.0000000000
     40362       341  POPE      C218          -40.5267882484       55.7195460566       -2.9545296535  MEMB      341             0.0000000000
     40363       341  POPE      H18R          -41.2031481096       55.5414845384       -2.0913079641  MEMB      341             0.0000000000
     40364       341  POPE      H18S          -40.8905138993       55.2852180019       -3.9102413883  MEMB      341             0.0000000000
     40365       341  POPE      H18T          -40.4825076082       56.8142370328       -3.1389532404  MEMB      341             0.0000000000
     40366       341  POPE      C33           -37.4498618039       54.0884531557      -11.8599428292  MEMB      341             0.0000000000
     40367       341  POPE      H3X           -37.4385937287       55.1993094078      -11.8460753897  MEMB      341             0.0000000000
     40368       341  POPE      H3Y           -36.6000647836       53.6932859219      -11.2632780111  MEMB      341             0.0000000000
     40369       341  POPE      C34           -38.7808362125       53.7723843566      -11.2179386942  MEMB      341             0.0000000000
     40370       341  POPE      H4X           -38.8774396860       52.7091850989      -10.9103736705  MEMB      341             0.0000000000
     40371       341  POPE      H4Y           -39.5863306333       54.1224552271      -11.8983429541  MEMB      341             0.0000000000
     40372       341  POPE      C35           -38.9920448793       54.6456712312       -9.9137520988  MEMB      341             0.0000000000
     40373       341  POPE      H5X           -39.1202303033       55.6957440629      -10.2532169734  MEMB      341             0.0000000000
     40374       341  POPE      H5Y           -38.0515936774       54.6160873781       -9.3229918182  MEMB      341             0.0000000000
     40375       341  POPE      C36           -40.1890111376       54.1109204350       -9.0626027233  MEMB      341             0.0000000000
     40376       341  POPE      H6X           -40.2092426256       54.6414368906       -8.0866599325  MEMB      341             0.0000000000
     40377       341  POPE      H6Y           -39.9527371150       53.0902946692       -8.6927128568  MEMB      341             0.0000000000
     40378       341  POPE      C37           -41.5488842430       54.2793876133       -9.6612549293  MEMB      341             0.0000000000
     40379       341  POPE      H7X           -41.6541511184       54.1352699120      -10.7578271174  MEMB      341             0.0000000000
     40380       341  POPE      H7Y           -41.7890997075       55.3478352791       -9.4740737623  MEMB      341             0.0000000000
     40381       341  POPE      C38           -42.7507175018       53.5813384132       -9.0169241610  MEMB      341             0.0000000000
     40382       341  POPE      H8X           -42.8078830979       52.4831746863       -9.1753216428  MEMB      341             0.0000000000
     40383       341  POPE      H8Y           -43.5692033051       53.8238335351       -9.7279783132  MEMB      341             0.0000000000
     40384       341  POPE      C39           -43.1524655408       53.9542816453       -7.5344275999  MEMB      341             0.0000000000
     40385       341  POPE      H9X           -44.1201889516       53.4499435915       -7.3259214143  MEMB      341             0.0000000000
     40386       341  POPE      H9Y           -43.4435770948       55.0238923754       -7.4602134304  MEMB      341             0.0000000000
     40387       341  POPE      C310          -42.1800892686       53.3777888801       -6.4865723357  MEMB      341             0.0000000000
     40388       341  POPE      H10X          -41.1422241731       53.7398896834       -6.6479430358  MEMB      341             0.0000000000
     40389       341  POPE      H10Y          -42.0141745582       52.2851006906       -6.5998238792  MEMB      341             0.0000000000
     40390       341  POPE      C311          -42.4196290825       53.5238010793       -4.9532895196  MEMB      341             0.0000000000
     40391       341  POPE      H11X          -42.5738081893       54.6107111252       -4.7824792924  MEMB      341             0.0000000000
     40392       341  POPE      H11Y          -41.5043395854       53.1057153334       -4.4823643944  MEMB      341             0.0000000000
     40393       341  POPE      C312          -43.6227049639       52.6835851772       -4.6210895425  MEMB      341             0.0000000000
     40394       341  POPE      H12X          -43.2647306335       51.6328673976       -4.6676458602  MEMB      341             0.0000000000
     40395       341  POPE      H12Y          -44.4351277972       52.8279428243       -5.3650321678  MEMB      341             0.0000000000
     40396       341  POPE      C313          -44.1832848633       53.0300252031       -3.2578490504  MEMB      341             0.0000000000
     40397       341  POPE      H13X          -45.1640718860       52.5142130190       -3.1783748182  MEMB      341             0.0000000000
     40398       341  POPE      H13Y          -44.3872498479       54.1221002576       -3.2482994304  MEMB      341             0.0000000000
     40399       341  POPE      C314          -43.2968476292       52.6965733704       -2.0508307927  MEMB      341             0.0000000000
     40400       341  POPE      H14X          -43.8831559186       52.6581408191       -1.1079155037  MEMB      341             0.0000000000
     40401       341  POPE      H14Y          -42.5369665314       53.5067864863       -2.0294657539  MEMB      341             0.0000000000
     40402       341  POPE      C315          -42.4581618040       51.3419306809       -2.1202196371  MEMB      341             0.0000000000
     40403       341  POPE      H15X          -41.8277960873       51.3335660665       -1.2054018158  MEMB      341             0.0000000000
     40404       341  POPE      H15Y          -41.7099458708       51.2602047671       -2.9374174857  MEMB      341             0.0000000000
     40405       341  POPE      C316          -43.2848939175       50.0925054218       -2.1225278211  MEMB      341             0.0000000000
     40406       341  POPE      H16X          -44.1783862436       50.1473798692       -1.4645151214  MEMB      341             0.0000000000
     40407       341  POPE      H16Y          -42.7189319663       49.1673773679       -1.8813922853  MEMB      341             0.0000000000
     40408       341  POPE      H16Z          -43.6722810514       49.8897278632       -3.1438666130  MEMB      341             0.0000000000
     40409       342  POPC      N              53.0943668031       32.2524934007      -20.3468252690  MEMB      342             0.0000000000
     40410       342  POPC      C12            53.8709761350       33.4229198276      -20.7183272812  MEMB      342             0.0000000000
     40411       342  POPC      H12A           53.2059594115       34.2733436721      -20.6877959433  MEMB      342             0.0000000000
     40412       342  POPC      H12B           54.1935720394       33.2636300143      -21.7366387385  MEMB      342             0.0000000000
     40413       342  POPC      C13            51.9078167412       32.1170944481      -21.3471187051  MEMB      342             0.0000000000
     40414       342  POPC      H13A           52.2613250683       32.0365365090      -22.3644398173  MEMB      342             0.0000000000
     40415       342  POPC      H13B           51.3268793784       31.2316569137      -21.1351934638  MEMB      342             0.0000000000
     40416       342  POPC      H13C           51.3343849538       33.0291494309      -21.2714113665  MEMB      342             0.0000000000
     40417       342  POPC      C14            53.9585440341       31.0395165799      -20.4682960084  MEMB      342             0.0000000000
     40418       342  POPC      H14A           53.4368348860       30.0964110267      -20.3992194011  MEMB      342             0.0000000000
     40419       342  POPC      H14B           54.5298854827       31.2356262704      -21.3635669794  MEMB      342             0.0000000000
     40420       342  POPC      H14C           54.6300668916       31.1123798176      -19.6255932418  MEMB      342             0.0000000000
     40421       342  POPC      C15            52.5321921223       32.3231697390      -18.9402416143  MEMB      342             0.0000000000
     40422       342  POPC      H15A           53.1907821053       32.6610832399      -18.1538106680  MEMB      342             0.0000000000
     40423       342  POPC      H15B           52.3379717988       31.2887014946      -18.6982630594  MEMB      342             0.0000000000
     40424       342  POPC      H15C           51.6227205034       32.9052222450      -18.9184084919  MEMB      342             0.0000000000
     40425       342  POPC      C11            55.0470588283       33.8259905846      -19.8828504119  MEMB      342             0.0000000000
     40426       342  POPC      H11A           55.5876438040       34.5867285976      -20.4856494242  MEMB      342             0.0000000000
     40427       342  POPC      H11B           55.8468401661       33.0828870852      -19.6767729668  MEMB      342             0.0000000000
     40428       342  POPC      P              55.7154045606       34.8472946125      -17.4654533495  MEMB      342             0.0000000000
     40429       342  POPC      O13            55.5630446645       36.3631356354      -17.5369513325  MEMB      342             0.0000000000
     40430       342  POPC      O14            57.0429555115       34.1737774620      -17.6200937721  MEMB      342             0.0000000000
     40431       342  POPC      O12            54.6896665829       34.4297973037      -18.6016652061  MEMB      342             0.0000000000
     40432       342  POPC      O11            55.1625815145       34.3324550060      -16.0721770006  MEMB      342             0.0000000000
     40433       342  POPC      C1             53.7081692898       34.3788321771      -15.9000835965  MEMB      342             0.0000000000
     40434       342  POPC      HA             53.2062934846       33.5183065043      -16.3919548038  MEMB      342             0.0000000000
     40435       342  POPC      HB             53.2103185781       35.3073865168      -16.2525783934  MEMB      342             0.0000000000
     40436       342  POPC      C2             53.4710413832       34.2903957160      -14.4815969010  MEMB      342             0.0000000000
     40437       342  POPC      HS             52.3820580644       34.4016472116      -14.2917032877  MEMB      342             0.0000000000
     40438       342  POPC      O21            54.1950652967       35.2488844850      -13.7622545394  MEMB      342             0.0000000000
     40439       342  POPC      C21            53.6868626678       35.9005416903      -12.7158298811  MEMB      342             0.0000000000
     40440       342  POPC      O22            52.5415159132       35.9372629244      -12.2626704357  MEMB      342             0.0000000000
     40441       342  POPC      C22            54.8969056398       36.5252123276      -12.0130156042  MEMB      342             0.0000000000
     40442       342  POPC      H2R            55.3647555903       37.1244223872      -12.8231912939  MEMB      342             0.0000000000
     40443       342  POPC      H2S            55.6341830991       35.7151376976      -11.8272145486  MEMB      342             0.0000000000
     40444       342  POPC      C3             53.9138471870       32.8349904312      -13.9658043574  MEMB      342             0.0000000000
     40445       342  POPC      HX             54.9653419275       32.7862609743      -14.3211989559  MEMB      342             0.0000000000
     40446       342  POPC      HY             53.3830002665       31.9731101674      -14.4237178878  MEMB      342             0.0000000000
     40447       342  POPC      O31            53.9027880071       32.6966988146      -12.4972691445  MEMB      342             0.0000000000
     40448       342  POPC      C31            55.1983318743       32.5064065278      -11.9960677686  MEMB      342             0.0000000000
     40449       342  POPC      O32            56.2188960358       32.2714091217      -12.6705227817  MEMB      342             0.0000000000
     40450       342  POPC      C32            55.1710291518       32.7000831589      -10.4840041821  MEMB      342             0.0000000000
     40451       342  POPC      H2X            54.4794530148       31.9775260689      -10.0003152339  MEMB      342             0.0000000000
     40452       342  POPC      H2Y            54.8336319901       33.7375035535      -10.2736635004  MEMB      342             0.0000000000
     40453       342  POPC      C23            54.5534090277       37.4793795652      -10.8559454780  MEMB      342             0.0000000000
     40454       342  POPC      H3R            53.9214383592       38.3072130107      -11.2427604248  MEMB      342             0.0000000000
     40455       342  POPC      H3S            55.4476792165       37.9903479257      -10.4393962374  MEMB      342             0.0000000000
     40456       342  POPC      C24            53.8781762538       36.6679438723       -9.7394146442  MEMB      342             0.0000000000
     40457       342  POPC      H4R            54.5978448922       35.9160311600       -9.3507944559  MEMB      342             0.0000000000
     40458       342  POPC      H4S            53.1105813345       35.9776795930      -10.1500894975  MEMB      342             0.0000000000
     40459       342  POPC      C25            53.0999166598       37.5204063495       -8.7068544095  MEMB      342             0.0000000000
     40460       342  POPC      H5R            52.4645722278       38.1891104870       -9.3261226511  MEMB      342             0.0000000000
     40461       342  POPC      H5S            53.8548718121       38.1204822010       -8.1552446862  MEMB      342             0.0000000000
     40462       342  POPC      C26            52.2241439797       36.6814145879       -7.6831980679  MEMB      342             0.0000000000
     40463       342  POPC      H6R            51.4296686315       36.0871574553       -8.1831856982  MEMB      342             0.0000000000
     40464       342  POPC      H6S            51.6318411743       37.4226053128       -7.1051540517  MEMB      342             0.0000000000
     40465       342  POPC      C27            53.1320104094       35.7591447835       -6.8406767225  MEMB      342             0.0000000000
     40466       342  POPC      H7R            53.4279955500       36.3277352520       -5.9332524895  MEMB      342             0.0000000000
     40467       342  POPC      H7S            54.0783856771       35.5283598242       -7.3749360018  MEMB      342             0.0000000000
     40468       342  POPC      C28            52.4932060349       34.6174756025       -6.0050438233  MEMB      342             0.0000000000
     40469       342  POPC      H8R            51.7570737737       35.1988894097       -5.4097385714  MEMB      342             0.0000000000
     40470       342  POPC      H8S            53.3152237230       34.1277320486       -5.4404559418  MEMB      342             0.0000000000
     40471       342  POPC      C29            51.7828308188       33.5362413122       -6.7645465440  MEMB      342             0.0000000000
     40472       342  POPC      H91            52.3749907493       33.1360075265       -7.6007045041  MEMB      342             0.0000000000
     40473       342  POPC      C210           50.6545824384       32.9038517602       -6.3727430924  MEMB      342             0.0000000000
     40474       342  POPC      H101           50.4236886810       32.0447891515       -7.0198134825  MEMB      342             0.0000000000
     40475       342  POPC      C211           49.8585325572       33.1185319711       -5.0988053964  MEMB      342             0.0000000000
     40476       342  POPC      H11R           48.7631477249       33.1748887654       -5.2756596164  MEMB      342             0.0000000000
     40477       342  POPC      H11S           50.1118689318       34.1077290155       -4.6610492562  MEMB      342             0.0000000000
     40478       342  POPC      C212           49.9673385973       31.9187359950       -4.0532271774  MEMB      342             0.0000000000
     40479       342  POPC      H12R           49.4984654082       31.0238010278       -4.5153636754  MEMB      342             0.0000000000
     40480       342  POPC      H12S           49.2937220654       32.2234382026       -3.2239387882  MEMB      342             0.0000000000
     40481       342  POPC      C213           51.4127825581       31.6106533945       -3.6218132531  MEMB      342             0.0000000000
     40482       342  POPC      H13R           51.9903015888       32.5192280521       -3.3474333668  MEMB      342             0.0000000000
     40483       342  POPC      H13S           51.8148162089       31.2253415626       -4.5831797785  MEMB      342             0.0000000000
     40484       342  POPC      C214           51.5157803055       30.6224289205       -2.4974869502  MEMB      342             0.0000000000
     40485       342  POPC      H14R           50.7893635966       29.7958431996       -2.6504428577  MEMB      342             0.0000000000
     40486       342  POPC      H14S           51.2052328018       31.1590428625       -1.5755725602  MEMB      342             0.0000000000
     40487       342  POPC      C215           52.8875414135       29.8780150112       -2.3601838645  MEMB      342             0.0000000000
     40488       342  POPC      H15R           53.1721999567       29.5374615775       -3.3786690846  MEMB      342             0.0000000000
     40489       342  POPC      H15S           52.6955042717       29.0242598701       -1.6756797475  MEMB      342             0.0000000000
     40490       342  POPC      C216           53.8991990198       30.8548202185       -1.8695726100  MEMB      342             0.0000000000
     40491       342  POPC      H16R           53.6036910773       31.2688101131       -0.8818429457  MEMB      342             0.0000000000
     40492       342  POPC      H16S           53.9511978573       31.7139427164       -2.5720854339  MEMB      342             0.0000000000
     40493       342  POPC      C217           55.2276097402       30.2093522258       -1.6227996901  MEMB      342             0.0000000000
     40494       342  POPC      H17R           55.3937649246       29.6181073808       -2.5486211583  MEMB      342             0.0000000000
     40495       342  POPC      H17S           55.0318653783       29.4664611865       -0.8202310934  MEMB      342             0.0000000000
     40496       342  POPC      C218           56.4286000656       31.0934828185       -1.3478096867  MEMB      342             0.0000000000
     40497       342  POPC      H18R           57.3744945763       30.5666148478       -1.5968382800  MEMB      342             0.0000000000
     40498       342  POPC      H18S           56.3424301444       31.5458892133       -0.3367599732  MEMB      342             0.0000000000
     40499       342  POPC      H18T           56.2468004812       31.9280233029       -2.0583112425  MEMB      342             0.0000000000
     40500       342  POPC      C33            56.6088536887       32.5713344248       -9.9043155641  MEMB      342             0.0000000000
     40501       342  POPC      H3X            57.2668321094       33.2847215137      -10.4451151454  MEMB      342             0.0000000000
     40502       342  POPC      H3Y            56.9950057076       31.5912983828      -10.2574970048  MEMB      342             0.0000000000
     40503       342  POPC      C34            56.8647628771       32.5243420762       -8.3633207376  MEMB      342             0.0000000000
     40504       342  POPC      H4X            57.9699901811       32.4929875468       -8.2546437745  MEMB      342             0.0000000000
     40505       342  POPC      H4Y            56.3408914305       31.7054334270       -7.8254844986  MEMB      342             0.0000000000
     40506       342  POPC      C35            56.5313541119       33.8663760212       -7.6855155832  MEMB      342             0.0000000000
     40507       342  POPC      H5X            55.4949753965       33.7648370646       -7.2983078099  MEMB      342             0.0000000000
     40508       342  POPC      H5Y            56.5821872054       34.6329726426       -8.4880537295  MEMB      342             0.0000000000
     40509       342  POPC      C36            57.4656499455       33.8261849689       -6.4704227483  MEMB      342             0.0000000000
     40510       342  POPC      H6X            58.5302935044       33.7624073741       -6.7815305481  MEMB      342             0.0000000000
     40511       342  POPC      H6Y            57.3833411110       33.0095193619       -5.7216886992  MEMB      342             0.0000000000
     40512       342  POPC      C37            57.3568299731       35.2314429890       -5.7611866524  MEMB      342             0.0000000000
     40513       342  POPC      H7X            56.3032929760       35.5563494647       -5.8983598466  MEMB      342             0.0000000000
     40514       342  POPC      H7Y            58.1055082320       35.9844378605       -6.0879904999  MEMB      342             0.0000000000
     40515       342  POPC      C38            57.6140326520       35.2718328672       -4.2749937763  MEMB      342             0.0000000000
     40516       342  POPC      H8X            58.6954260870       35.0576230380       -4.1370694380  MEMB      342             0.0000000000
     40517       342  POPC      H8Y            56.9501514104       34.5192191588       -3.7983858790  MEMB      342             0.0000000000
     40518       342  POPC      C39            57.4337760212       36.6517055257       -3.5639950398  MEMB      342             0.0000000000
     40519       342  POPC      H9X            56.3655242386       36.9403478199       -3.6632144053  MEMB      342             0.0000000000
     40520       342  POPC      H9Y            58.0856870394       37.4095269704       -4.0488039936  MEMB      342             0.0000000000
     40521       342  POPC      C310           57.7738822770       36.6257054204       -2.0898938728  MEMB      342             0.0000000000
     40522       342  POPC      H10X           58.2258417905       37.6111898508       -1.8472548722  MEMB      342             0.0000000000
     40523       342  POPC      H10Y           58.6705270187       35.9829782409       -1.9585513202  MEMB      342             0.0000000000
     40524       342  POPC      C311           56.5725461839       36.2927249522       -1.1734777447  MEMB      342             0.0000000000
     40525       342  POPC      H11X           55.9827131831       35.5586818605       -1.7630543485  MEMB      342             0.0000000000
     40526       342  POPC      H11Y           55.9541788361       37.2156865874       -1.1827150892  MEMB      342             0.0000000000
     40527       342  POPC      C312           56.8925492410       35.7185431933        0.1355649198  MEMB      342             0.0000000000
     40528       342  POPC      H12X           57.5638953531       36.3702182268        0.7346773688  MEMB      342             0.0000000000
     40529       342  POPC      H12Y           57.4858071086       34.7949525343       -0.0357416460  MEMB      342             0.0000000000
     40530       342  POPC      C313           55.5552710172       35.3816273018        0.9864723596  MEMB      342             0.0000000000
     40531       342  POPC      H13X           55.1301221461       36.3896786267        1.1798670189  MEMB      342             0.0000000000
     40532       342  POPC      H13Y           55.9232551047       34.9848926099        1.9567869841  MEMB      342             0.0000000000
     40533       342  POPC      C314           54.5478100740       34.4268466855        0.3903674015  MEMB      342             0.0000000000
     40534       342  POPC      H14X           55.0936398156       33.4591738064        0.3899906490  MEMB      342             0.0000000000
     40535       342  POPC      H14Y           54.1825915480       34.6949788363       -0.6240491664  MEMB      342             0.0000000000
     40536       342  POPC      C315           53.3030282936       34.3148707575        1.3158783533  MEMB      342             0.0000000000
     40537       342  POPC      H15X           52.5914651548       33.5460781868        0.9458011638  MEMB      342             0.0000000000
     40538       342  POPC      H15Y           52.8998468509       35.3500682226        1.3273640526  MEMB      342             0.0000000000
     40539       342  POPC      C316           53.6131102826       33.9942695722        2.7701521323  MEMB      342             0.0000000000
     40540       342  POPC      H16X           54.0104821076       32.9633535814        2.8868937518  MEMB      342             0.0000000000
     40541       342  POPC      H16Y           52.6965614742       34.1248825040        3.3843167813  MEMB      342             0.0000000000
     40542       342  POPC      H16Z           54.2169276805       34.8186828358        3.2061196946  MEMB      342             0.0000000000
     40543       343  POPE      N             -45.7728487082      -36.0282782212      -16.1510237740  MEMB      343             0.0000000000
     40544       343  POPE      HN1           -44.8124337418      -35.6405577493      -16.0568115815  MEMB      343             0.0000000000
     40545       343  POPE      HN2           -46.4745395163      -35.6206133304      -15.5006092386  MEMB      343             0.0000000000
     40546       343  POPE      HN3           -45.7501224918      -37.0646080207      -16.0667386878  MEMB      343             0.0000000000
     40547       343  POPE      C12           -46.1587849576      -35.6915134751      -17.5567902928  MEMB      343             0.0000000000
     40548       343  POPE      H12A          -47.1575434888      -36.1643140505      -17.6719512432  MEMB      343             0.0000000000
     40549       343  POPE      H12B          -45.4606144476      -36.2225737087      -18.2385922290  MEMB      343             0.0000000000
     40550       343  POPE      C11           -46.1869254279      -34.2506386045      -17.9357323688  MEMB      343             0.0000000000
     40551       343  POPE      H11A          -45.1793238958      -33.7973910883      -17.8189977772  MEMB      343             0.0000000000
     40552       343  POPE      H11B          -47.0795218835      -33.7390458831      -17.5163692851  MEMB      343             0.0000000000
     40553       343  POPE      P             -46.3595378707      -32.9932621188      -20.1905199379  MEMB      343             0.0000000000
     40554       343  POPE      O13           -47.3688078320      -33.0179187886      -21.2578423104  MEMB      343             0.0000000000
     40555       343  POPE      O14           -44.8817326357      -32.8285029519      -20.5113862206  MEMB      343             0.0000000000
     40556       343  POPE      O11           -46.7145980193      -31.9077530528      -19.0770647782  MEMB      343             0.0000000000
     40557       343  POPE      O12           -46.4676411223      -34.3407797141      -19.3196403097  MEMB      343             0.0000000000
     40558       343  POPE      C1            -46.5740868839      -30.4379396101      -19.2502120465  MEMB      343             0.0000000000
     40559       343  POPE      HA            -47.5768596372      -29.9848360373      -19.4033947402  MEMB      343             0.0000000000
     40560       343  POPE      HB            -46.0232447659      -30.2014887569      -20.1856182629  MEMB      343             0.0000000000
     40561       343  POPE      C2            -45.8056358198      -29.7959976654      -18.0632799167  MEMB      343             0.0000000000
     40562       343  POPE      HS            -45.2732529372      -28.8390856681      -18.2509203426  MEMB      343             0.0000000000
     40563       343  POPE      O21           -44.7495074707      -30.7804679718      -17.6627303436  MEMB      343             0.0000000000
     40564       343  POPE      C21           -43.6051427954      -30.6428934352      -18.3727088673  MEMB      343             0.0000000000
     40565       343  POPE      O22           -43.4081981839      -29.9121974170      -19.2674314019  MEMB      343             0.0000000000
     40566       343  POPE      C22           -42.5260131970      -31.5648325188      -17.7736912787  MEMB      343             0.0000000000
     40567       343  POPE      H2R           -41.4856603935      -31.2550546548      -18.0103874504  MEMB      343             0.0000000000
     40568       343  POPE      H2S           -42.7472164074      -32.5720604582      -18.1870704102  MEMB      343             0.0000000000
     40569       343  POPE      C3            -46.7870817837      -29.6094726974      -16.9016523197  MEMB      343             0.0000000000
     40570       343  POPE      HX            -47.5036863115      -28.8163440432      -17.2045489620  MEMB      343             0.0000000000
     40571       343  POPE      HY            -46.1952190537      -29.1352310291      -16.0897936692  MEMB      343             0.0000000000
     40572       343  POPE      O31           -47.3812891569      -30.8236060409      -16.4502343569  MEMB      343             0.0000000000
     40573       343  POPE      C31           -47.7538998590      -30.7971705157      -15.1496646426  MEMB      343             0.0000000000
     40574       343  POPE      O32           -47.7935968610      -29.8019607036      -14.4594257021  MEMB      343             0.0000000000
     40575       343  POPE      C32           -48.0045511538      -32.2445019240      -14.7260707253  MEMB      343             0.0000000000
     40576       343  POPE      H2X           -47.1956232838      -32.8609048949      -15.1732884887  MEMB      343             0.0000000000
     40577       343  POPE      H2Y           -49.0332582101      -32.5080579600      -15.0525995524  MEMB      343             0.0000000000
     40578       343  POPE      C23           -42.7608687813      -31.7907371454      -16.2668218513  MEMB      343             0.0000000000
     40579       343  POPE      H3R           -43.7316037347      -32.3105948504      -16.1193683677  MEMB      343             0.0000000000
     40580       343  POPE      H3S           -42.8168078143      -30.8267443512      -15.7173586680  MEMB      343             0.0000000000
     40581       343  POPE      C24           -41.5802203410      -32.5501274853      -15.7230136372  MEMB      343             0.0000000000
     40582       343  POPE      H4R           -40.6955323897      -31.8782244128      -15.7090446177  MEMB      343             0.0000000000
     40583       343  POPE      H4S           -41.2773855167      -33.4423507019      -16.3116983305  MEMB      343             0.0000000000
     40584       343  POPE      C25           -41.7798709127      -33.1093223022      -14.3223118319  MEMB      343             0.0000000000
     40585       343  POPE      H5R           -40.8343500587      -33.5707316686      -13.9653620146  MEMB      343             0.0000000000
     40586       343  POPE      H5S           -42.4690731538      -33.9666800354      -14.4780645015  MEMB      343             0.0000000000
     40587       343  POPE      C26           -42.4146015000      -32.0711111744      -13.3347377715  MEMB      343             0.0000000000
     40588       343  POPE      H6R           -43.4859418633      -31.9404488027      -13.5983249503  MEMB      343             0.0000000000
     40589       343  POPE      H6S           -41.9315424706      -31.0815950167      -13.1869787697  MEMB      343             0.0000000000
     40590       343  POPE      C27           -42.4639210816      -32.7428511942      -11.9080209923  MEMB      343             0.0000000000
     40591       343  POPE      H7R           -41.3911769675      -32.8714828092      -11.6491871435  MEMB      343             0.0000000000
     40592       343  POPE      H7S           -43.0233067336      -33.7027011914      -11.8981822288  MEMB      343             0.0000000000
     40593       343  POPE      C28           -43.1285728402      -31.9258412144      -10.7888637076  MEMB      343             0.0000000000
     40594       343  POPE      H8R           -42.7789924704      -30.8854681182      -10.9613113795  MEMB      343             0.0000000000
     40595       343  POPE      H8S           -42.7268855942      -32.3250635124       -9.8330450612  MEMB      343             0.0000000000
     40596       343  POPE      C29           -44.6009962390      -31.6015037158      -10.9031760797  MEMB      343             0.0000000000
     40597       343  POPE      H91           -44.8150396038      -30.8730099906      -11.6990923147  MEMB      343             0.0000000000
     40598       343  POPE      C210          -45.6196287662      -32.0117805784      -10.1522982819  MEMB      343             0.0000000000
     40599       343  POPE      H101          -46.6112263740      -31.7569165510      -10.5545153537  MEMB      343             0.0000000000
     40600       343  POPE      C211          -45.6142134776      -32.8946599948       -8.9555321576  MEMB      343             0.0000000000
     40601       343  POPE      H11R          -44.5936420029      -32.9663957033       -8.5223939239  MEMB      343             0.0000000000
     40602       343  POPE      H11S          -45.8362691460      -33.9271429664       -9.3004832152  MEMB      343             0.0000000000
     40603       343  POPE      C212          -46.7145326003      -32.4453699155       -8.0115537485  MEMB      343             0.0000000000
     40604       343  POPE      H12R          -47.6745538285      -32.5552258350       -8.5598347262  MEMB      343             0.0000000000
     40605       343  POPE      H12S          -46.6523252489      -31.3553319451       -7.8059608516  MEMB      343             0.0000000000
     40606       343  POPE      C213          -46.5440257947      -33.3253006716       -6.7229220992  MEMB      343             0.0000000000
     40607       343  POPE      H13R          -46.7945174947      -34.3830725546       -6.9524729102  MEMB      343             0.0000000000
     40608       343  POPE      H13S          -47.3589549272      -32.9543413843       -6.0651974225  MEMB      343             0.0000000000
     40609       343  POPE      C214          -45.2132805354      -33.1976901725       -5.9460552236  MEMB      343             0.0000000000
     40610       343  POPE      H14R          -44.8575163026      -32.1463148386       -5.9946646698  MEMB      343             0.0000000000
     40611       343  POPE      H14S          -44.4547642278      -33.7656363608       -6.5260648432  MEMB      343             0.0000000000
     40612       343  POPE      C215          -45.2684705508      -33.7412366615       -4.4593947991  MEMB      343             0.0000000000
     40613       343  POPE      H15R          -45.7560849222      -34.7393895464       -4.4437784735  MEMB      343             0.0000000000
     40614       343  POPE      H15S          -45.8909439116      -33.0932953960       -3.8059271007  MEMB      343             0.0000000000
     40615       343  POPE      C216          -43.8814007590      -34.0164833610       -3.8462568935  MEMB      343             0.0000000000
     40616       343  POPE      H16R          -43.3944347577      -34.8095423798       -4.4530867759  MEMB      343             0.0000000000
     40617       343  POPE      H16S          -44.0090197135      -34.4498452422       -2.8312522555  MEMB      343             0.0000000000
     40618       343  POPE      C217          -43.1135077197      -32.6911556516       -3.6746542613  MEMB      343             0.0000000000
     40619       343  POPE      H17R          -42.9119302420      -32.2653671180       -4.6808313658  MEMB      343             0.0000000000
     40620       343  POPE      H17S          -42.1158928771      -33.0173570314       -3.3104037512  MEMB      343             0.0000000000
     40621       343  POPE      C218          -43.5328943923      -31.6519009633       -2.5990646529  MEMB      343             0.0000000000
     40622       343  POPE      H18R          -42.7624485552      -30.8528733414       -2.5512140565  MEMB      343             0.0000000000
     40623       343  POPE      H18S          -43.7688277403      -32.0728540800       -1.5983364311  MEMB      343             0.0000000000
     40624       343  POPE      H18T          -44.4520348158      -31.1533312710       -2.9744703758  MEMB      343             0.0000000000
     40625       343  POPE      C33           -47.9423336691      -32.4318466385      -13.2096751763  MEMB      343             0.0000000000
     40626       343  POPE      H3X           -47.1699936771      -31.7101827269      -12.8676034242  MEMB      343             0.0000000000
     40627       343  POPE      H3Y           -47.3935592157      -33.3959905687      -13.1497239207  MEMB      343             0.0000000000
     40628       343  POPE      C34           -49.2290225719      -32.3525137886      -12.3905012694  MEMB      343             0.0000000000
     40629       343  POPE      H4X           -49.6990505213      -31.3578908655      -12.5458076444  MEMB      343             0.0000000000
     40630       343  POPE      H4Y           -48.7544131362      -32.3047593255      -11.3871138344  MEMB      343             0.0000000000
     40631       343  POPE      C35           -50.2312931782      -33.5163076725      -12.5414413220  MEMB      343             0.0000000000
     40632       343  POPE      H5X           -50.5870810293      -33.5259320743      -13.5938878387  MEMB      343             0.0000000000
     40633       343  POPE      H5Y           -51.1455117645      -33.1906511877      -12.0006339174  MEMB      343             0.0000000000
     40634       343  POPE      C36           -49.8288474113      -34.9410274908      -12.0606702190  MEMB      343             0.0000000000
     40635       343  POPE      H6X           -49.0369125509      -35.1071808586      -12.8219537998  MEMB      343             0.0000000000
     40636       343  POPE      H6Y           -50.6899848612      -35.6024744933      -12.2957256098  MEMB      343             0.0000000000
     40637       343  POPE      C37           -49.2405950889      -35.0473090009      -10.6621548365  MEMB      343             0.0000000000
     40638       343  POPE      H7X           -50.0083383803      -34.6621577745       -9.9574925204  MEMB      343             0.0000000000
     40639       343  POPE      H7Y           -48.4116727147      -34.3228965351      -10.5123715131  MEMB      343             0.0000000000
     40640       343  POPE      C38           -48.6679152312      -36.4329497032      -10.3309287146  MEMB      343             0.0000000000
     40641       343  POPE      H8X           -47.8293748059      -36.4091509054       -9.6025024935  MEMB      343             0.0000000000
     40642       343  POPE      H8Y           -48.2199304378      -36.8296394605      -11.2670202718  MEMB      343             0.0000000000
     40643       343  POPE      C39           -49.7800327076      -37.4674285184      -10.0262752648  MEMB      343             0.0000000000
     40644       343  POPE      H9X           -49.2982851891      -38.4349296930       -9.7690169657  MEMB      343             0.0000000000
     40645       343  POPE      H9Y           -50.4059160297      -37.6023786686      -10.9342285032  MEMB      343             0.0000000000
     40646       343  POPE      C310          -50.7011953014      -37.2686788079       -8.7844931608  MEMB      343             0.0000000000
     40647       343  POPE      H10X          -51.2743351405      -38.1279791161       -8.3753056376  MEMB      343             0.0000000000
     40648       343  POPE      H10Y          -51.4986911942      -36.5290304587       -9.0108593405  MEMB      343             0.0000000000
     40649       343  POPE      C311          -49.9620031265      -36.6283088662       -7.5727974248  MEMB      343             0.0000000000
     40650       343  POPE      H11X          -49.7805539531      -35.5503836494       -7.7714804317  MEMB      343             0.0000000000
     40651       343  POPE      H11Y          -48.9520477742      -37.0749168030       -7.4509262972  MEMB      343             0.0000000000
     40652       343  POPE      C312          -50.8167930505      -36.8286327257       -6.2799473900  MEMB      343             0.0000000000
     40653       343  POPE      H12X          -50.6831257480      -37.9169030941       -6.1007226833  MEMB      343             0.0000000000
     40654       343  POPE      H12Y          -51.8973647518      -36.6957708253       -6.5013831508  MEMB      343             0.0000000000
     40655       343  POPE      C313          -50.4590879398      -35.9385978210       -5.0819722283  MEMB      343             0.0000000000
     40656       343  POPE      H13X          -51.2214856821      -36.1372186782       -4.2986319361  MEMB      343             0.0000000000
     40657       343  POPE      H13Y          -50.5241592088      -34.8809211157       -5.4157481520  MEMB      343             0.0000000000
     40658       343  POPE      C314          -49.1001572040      -36.1467915674       -4.4406828610  MEMB      343             0.0000000000
     40659       343  POPE      H14X          -48.9078639591      -35.1412995069       -4.0090227665  MEMB      343             0.0000000000
     40660       343  POPE      H14Y          -48.2470356018      -36.3295763029       -5.1285013896  MEMB      343             0.0000000000
     40661       343  POPE      C315          -48.9586330606      -37.3089528779       -3.4801205728  MEMB      343             0.0000000000
     40662       343  POPE      H15X          -48.8520808227      -38.2578334006       -4.0480939445  MEMB      343             0.0000000000
     40663       343  POPE      H15Y          -49.9699444702      -37.3630372037       -3.0233446145  MEMB      343             0.0000000000
     40664       343  POPE      C316          -47.8466681577      -37.2687849925       -2.4646599616  MEMB      343             0.0000000000
     40665       343  POPE      H16X          -46.7715556497      -37.2723337664       -2.7447338381  MEMB      343             0.0000000000
     40666       343  POPE      H16Y          -47.9704610013      -38.1948997473       -1.8635705923  MEMB      343             0.0000000000
     40667       343  POPE      H16Z          -48.1131463379      -36.3594266960       -1.8846777156  MEMB      343             0.0000000000
     40668       344  POPE      N             -54.3856462126       50.0920860635      -18.5974173785  MEMB      344             0.0000000000
     40669       344  POPE      HN1           -55.0390807046       49.3245755921      -18.8534469109  MEMB      344             0.0000000000
     40670       344  POPE      HN2           -54.6651933792       50.4182234876      -17.6502702352  MEMB      344             0.0000000000
     40671       344  POPE      HN3           -54.4067469407       50.8669052613      -19.2908219911  MEMB      344             0.0000000000
     40672       344  POPE      C12           -53.0832006217       49.3984774689      -18.5397531974  MEMB      344             0.0000000000
     40673       344  POPE      H12A          -53.0380698261       48.7733415150      -17.6224259993  MEMB      344             0.0000000000
     40674       344  POPE      H12B          -52.2312652849       50.1010209385      -18.4174427517  MEMB      344             0.0000000000
     40675       344  POPE      C11           -52.8608238087       48.4888258037      -19.8539297215  MEMB      344             0.0000000000
     40676       344  POPE      H11A          -53.0178721435       49.0406897553      -20.8052986877  MEMB      344             0.0000000000
     40677       344  POPE      H11B          -53.5709661500       47.6423163649      -19.7379962639  MEMB      344             0.0000000000
     40678       344  POPE      P             -51.2513456549       46.6081676518      -18.9993766756  MEMB      344             0.0000000000
     40679       344  POPE      O13           -50.7030981765       45.6692607440      -19.9639525360  MEMB      344             0.0000000000
     40680       344  POPE      O14           -52.4219600626       46.1338435842      -18.2389059026  MEMB      344             0.0000000000
     40681       344  POPE      O11           -50.2070982871       47.1127215783      -17.9652717832  MEMB      344             0.0000000000
     40682       344  POPE      O12           -51.5369455610       47.9562779102      -19.8413928054  MEMB      344             0.0000000000
     40683       344  POPE      C1            -49.3625234918       46.1710539284      -17.3628024243  MEMB      344             0.0000000000
     40684       344  POPE      HA            -48.5853516215       46.7572779177      -16.8273900725  MEMB      344             0.0000000000
     40685       344  POPE      HB            -48.9114133152       45.4535398355      -18.0811297924  MEMB      344             0.0000000000
     40686       344  POPE      C2            -50.1170242311       45.2675348871      -16.4037101261  MEMB      344             0.0000000000
     40687       344  POPE      HS            -50.5511168613       44.5147109332      -17.0959099423  MEMB      344             0.0000000000
     40688       344  POPE      O21           -51.0804774989       46.0866337852      -15.7218703932  MEMB      344             0.0000000000
     40689       344  POPE      C21           -52.1607515299       45.5236549612      -15.2487348690  MEMB      344             0.0000000000
     40690       344  POPE      O22           -52.4238521850       44.3113204185      -15.2350706120  MEMB      344             0.0000000000
     40691       344  POPE      C22           -53.0061769967       46.4623916380      -14.5121068127  MEMB      344             0.0000000000
     40692       344  POPE      H2R           -53.9921493889       45.9853936121      -14.3259561133  MEMB      344             0.0000000000
     40693       344  POPE      H2S           -53.1085171234       47.4593165484      -14.9916780919  MEMB      344             0.0000000000
     40694       344  POPE      C3            -49.2307997261       44.5698948369      -15.4084998282  MEMB      344             0.0000000000
     40695       344  POPE      HX            -48.7235694882       43.7166323890      -15.9074806645  MEMB      344             0.0000000000
     40696       344  POPE      HY            -49.9178005321       44.0858421808      -14.6818332787  MEMB      344             0.0000000000
     40697       344  POPE      O31           -48.3448064678       45.3986669803      -14.6150134867  MEMB      344             0.0000000000
     40698       344  POPE      C31           -48.6260012996       45.7770553520      -13.4116770852  MEMB      344             0.0000000000
     40699       344  POPE      O32           -49.6127827647       45.4869943123      -12.7713788982  MEMB      344             0.0000000000
     40700       344  POPE      C32           -47.4535020373       46.5569485508      -12.8185474342  MEMB      344             0.0000000000
     40701       344  POPE      H2X           -47.3795913273       47.5079226786      -13.3882019011  MEMB      344             0.0000000000
     40702       344  POPE      H2Y           -46.5268978592       45.9565845362      -12.9421964427  MEMB      344             0.0000000000
     40703       344  POPE      C23           -52.3769556835       46.6769246037      -13.1443823000  MEMB      344             0.0000000000
     40704       344  POPE      H3R           -51.3042215477       46.9613323434      -13.1961016718  MEMB      344             0.0000000000
     40705       344  POPE      H3S           -52.5264751144       45.6908371128      -12.6548965639  MEMB      344             0.0000000000
     40706       344  POPE      C24           -53.2770007973       47.6436394286      -12.4075624603  MEMB      344             0.0000000000
     40707       344  POPE      H4R           -54.3441360487       47.3360158355      -12.4377419486  MEMB      344             0.0000000000
     40708       344  POPE      H4S           -53.1235228622       48.6823658693      -12.7706230227  MEMB      344             0.0000000000
     40709       344  POPE      C25           -53.1059592929       47.6741307654      -10.8290925377  MEMB      344             0.0000000000
     40710       344  POPE      H5R           -53.1295259742       46.6137864303      -10.4982825790  MEMB      344             0.0000000000
     40711       344  POPE      H5S           -54.0301459893       48.1420393611      -10.4275187166  MEMB      344             0.0000000000
     40712       344  POPE      C26           -51.8580718539       48.2961552499      -10.2699371955  MEMB      344             0.0000000000
     40713       344  POPE      H6R           -50.9068537368       47.7367495966      -10.3986635118  MEMB      344             0.0000000000
     40714       344  POPE      H6S           -52.0072752295       48.3409671346       -9.1699142504  MEMB      344             0.0000000000
     40715       344  POPE      C27           -51.6718792546       49.7517101244      -10.7901899806  MEMB      344             0.0000000000
     40716       344  POPE      H7R           -52.6744474455       50.1257966750      -11.0889156976  MEMB      344             0.0000000000
     40717       344  POPE      H7S           -51.1230933666       49.7669988871      -11.7560682670  MEMB      344             0.0000000000
     40718       344  POPE      C28           -50.8836584720       50.7359141293       -9.9395857758  MEMB      344             0.0000000000
     40719       344  POPE      H8R           -51.3373224920       50.7898209733       -8.9268647365  MEMB      344             0.0000000000
     40720       344  POPE      H8S           -50.8924324683       51.7451910967      -10.4039173437  MEMB      344             0.0000000000
     40721       344  POPE      C29           -49.4396290057       50.4190456744       -9.7212966099  MEMB      344             0.0000000000
     40722       344  POPE      H91           -49.0655487657       49.5792667274      -10.3253128642  MEMB      344             0.0000000000
     40723       344  POPE      C210          -48.5213416481       50.8696065665       -8.7934727043  MEMB      344             0.0000000000
     40724       344  POPE      H101          -47.4540202013       50.6045672490       -8.7694118974  MEMB      344             0.0000000000
     40725       344  POPE      C211          -48.9541042828       51.9781459654       -7.8122759025  MEMB      344             0.0000000000
     40726       344  POPE      H11R          -49.9338030485       52.4443239850       -8.0514196235  MEMB      344             0.0000000000
     40727       344  POPE      H11S          -48.1155851707       52.5987411211       -7.4300864698  MEMB      344             0.0000000000
     40728       344  POPE      C212          -49.2927988669       51.2632175234       -6.4244114479  MEMB      344             0.0000000000
     40729       344  POPE      H12R          -50.2371049260       50.7005227381       -6.5855993488  MEMB      344             0.0000000000
     40730       344  POPE      H12S          -49.5452028357       52.0653683126       -5.6983486918  MEMB      344             0.0000000000
     40731       344  POPE      C213          -48.4090262911       50.2207385465       -5.8421861203  MEMB      344             0.0000000000
     40732       344  POPE      H13R          -48.1747027647       49.5156618232       -6.6681892636  MEMB      344             0.0000000000
     40733       344  POPE      H13S          -49.0344225496       49.7035751869       -5.0834095640  MEMB      344             0.0000000000
     40734       344  POPE      C214          -47.0445299095       50.7133809317       -5.3608944224  MEMB      344             0.0000000000
     40735       344  POPE      H14R          -47.1993983771       51.4178471852       -4.5158712816  MEMB      344             0.0000000000
     40736       344  POPE      H14S          -46.5124821857       51.3409974882       -6.1074490867  MEMB      344             0.0000000000
     40737       344  POPE      C215          -46.2362071144       49.4923939932       -5.0163879264  MEMB      344             0.0000000000
     40738       344  POPE      H15R          -45.2090529131       49.8713382285       -4.8275059435  MEMB      344             0.0000000000
     40739       344  POPE      H15S          -46.1034609661       48.9794945542       -5.9929296553  MEMB      344             0.0000000000
     40740       344  POPE      C216          -46.6751979310       48.6680757747       -3.8106248053  MEMB      344             0.0000000000
     40741       344  POPE      H16R          -47.6905708008       48.2764072506       -4.0340860371  MEMB      344             0.0000000000
     40742       344  POPE      H16S          -46.9183807621       49.2859911180       -2.9199152573  MEMB      344             0.0000000000
     40743       344  POPE      C217          -45.6523523216       47.5487679966       -3.3647615296  MEMB      344             0.0000000000
     40744       344  POPE      H17R          -44.7520785580       48.1065012463       -3.0289593428  MEMB      344             0.0000000000
     40745       344  POPE      H17S          -45.3503571255       46.8562603093       -4.1793479012  MEMB      344             0.0000000000
     40746       344  POPE      C218          -46.1555974145       46.7131418772       -2.1532022151  MEMB      344             0.0000000000
     40747       344  POPE      H18R          -46.3966765613       47.3122999785       -1.2492045992  MEMB      344             0.0000000000
     40748       344  POPE      H18S          -45.4313105905       45.8991882613       -1.9359268445  MEMB      344             0.0000000000
     40749       344  POPE      H18T          -47.1140762157       46.2746513877       -2.5044379893  MEMB      344             0.0000000000
     40750       344  POPE      C33           -47.5801077638       46.8687148627      -11.3022720612  MEMB      344             0.0000000000
     40751       344  POPE      H3X           -48.6402223341       47.0957096791      -11.0594731413  MEMB      344             0.0000000000
     40752       344  POPE      H3Y           -47.0715873013       47.7906887759      -10.9477413654  MEMB      344             0.0000000000
     40753       344  POPE      C34           -47.0630449630       45.7726782429      -10.5265887947  MEMB      344             0.0000000000
     40754       344  POPE      H4X           -46.0414623625       45.4232667412      -10.7885074096  MEMB      344             0.0000000000
     40755       344  POPE      H4Y           -47.7512634694       44.9006936262      -10.5444572668  MEMB      344             0.0000000000
     40756       344  POPE      C35           -46.9632501531       46.2003235184       -9.0608796367  MEMB      344             0.0000000000
     40757       344  POPE      H5X           -47.3555295415       47.2000387348       -8.7762616346  MEMB      344             0.0000000000
     40758       344  POPE      H5Y           -45.8738249163       46.1275771428       -8.8554982290  MEMB      344             0.0000000000
     40759       344  POPE      C36           -47.6318411247       45.2098866873       -8.0259023749  MEMB      344             0.0000000000
     40760       344  POPE      H6X           -47.2707036326       45.6327777871       -7.0641000355  MEMB      344             0.0000000000
     40761       344  POPE      H6Y           -47.3014017240       44.1562546330       -8.1483371020  MEMB      344             0.0000000000
     40762       344  POPE      C37           -49.1678137585       45.3160131724       -8.0690887061  MEMB      344             0.0000000000
     40763       344  POPE      H7X           -49.6634594915       44.7861267760       -8.9104426335  MEMB      344             0.0000000000
     40764       344  POPE      H7Y           -49.5258323643       46.3673437471       -8.0399696956  MEMB      344             0.0000000000
     40765       344  POPE      C38           -49.7571453619       44.7213025986       -6.7980141571  MEMB      344             0.0000000000
     40766       344  POPE      H8X           -49.3905621202       45.4320927248       -6.0268361511  MEMB      344             0.0000000000
     40767       344  POPE      H8Y           -49.3009215927       43.7235563991       -6.6228473976  MEMB      344             0.0000000000
     40768       344  POPE      C39           -51.2927190173       44.7054793898       -6.8620886386  MEMB      344             0.0000000000
     40769       344  POPE      H9X           -51.7161277710       44.4564870552       -5.8655706687  MEMB      344             0.0000000000
     40770       344  POPE      H9Y           -51.5112893618       43.9530118133       -7.6497055496  MEMB      344             0.0000000000
     40771       344  POPE      C310          -51.9994920223       45.9762877519       -7.3992343016  MEMB      344             0.0000000000
     40772       344  POPE      H10X          -53.0921776617       45.7825176878       -7.3462030104  MEMB      344             0.0000000000
     40773       344  POPE      H10Y          -51.6794075435       46.3304219628       -8.4024573246  MEMB      344             0.0000000000
     40774       344  POPE      C311          -51.7646540819       47.3024890979       -6.5184879162  MEMB      344             0.0000000000
     40775       344  POPE      H11X          -52.1737719165       48.1862373103       -7.0532150311  MEMB      344             0.0000000000
     40776       344  POPE      H11Y          -50.6848792770       47.3697013612       -6.2657233006  MEMB      344             0.0000000000
     40777       344  POPE      C312          -52.6083812132       47.3804686104       -5.2617568021  MEMB      344             0.0000000000
     40778       344  POPE      H12X          -52.3104550408       46.5098407810       -4.6392068314  MEMB      344             0.0000000000
     40779       344  POPE      H12Y          -53.6897450812       47.3426292882       -5.5138309103  MEMB      344             0.0000000000
     40780       344  POPE      C313          -52.3525147230       48.7289221787       -4.5447802440  MEMB      344             0.0000000000
     40781       344  POPE      H13X          -52.5214309409       49.5100590791       -5.3165398925  MEMB      344             0.0000000000
     40782       344  POPE      H13Y          -51.2758113025       48.7410035428       -4.2711293126  MEMB      344             0.0000000000
     40783       344  POPE      C314          -53.1225246279       49.0393768068       -3.2418955682  MEMB      344             0.0000000000
     40784       344  POPE      H14X          -53.1206333433       48.0703266828       -2.6985185582  MEMB      344             0.0000000000
     40785       344  POPE      H14Y          -54.1732121086       49.2930528314       -3.4988504478  MEMB      344             0.0000000000
     40786       344  POPE      C315          -52.4864364738       50.1986599228       -2.5757251119  MEMB      344             0.0000000000
     40787       344  POPE      H15X          -51.4575547975       49.9325818775       -2.2518014405  MEMB      344             0.0000000000
     40788       344  POPE      H15Y          -53.1539392799       50.5221552157       -1.7486139723  MEMB      344             0.0000000000
     40789       344  POPE      C316          -52.2135701901       51.3780030952       -3.5191502916  MEMB      344             0.0000000000
     40790       344  POPE      H16X          -51.4890815074       51.1829740362       -4.3385406589  MEMB      344             0.0000000000
     40791       344  POPE      H16Y          -51.8177950142       52.2503672127       -2.9564205923  MEMB      344             0.0000000000
     40792       344  POPE      H16Z          -53.1490508816       51.5720989671       -4.0861813716  MEMB      344             0.0000000000
     40793       345  POPC      N              51.5208614397      -22.3791263851      -19.3688681518  MEMB      345             0.0000000000
     40794       345  POPC      C12            50.2690369521      -23.2252770562      -19.7434807322  MEMB      345             0.0000000000
     40795       345  POPC      H12A           50.3860036544      -23.5171026343      -20.7767070734  MEMB      345             0.0000000000
     40796       345  POPC      H12B           49.3806805500      -22.6310419544      -19.5882147624  MEMB      345             0.0000000000
     40797       345  POPC      C13            51.1693978001      -20.9371068003      -19.8538198976  MEMB      345             0.0000000000
     40798       345  POPC      H13A           52.0631983715      -20.3508200567      -19.6995847813  MEMB      345             0.0000000000
     40799       345  POPC      H13B           51.0785871787      -21.0573051214      -20.9232617329  MEMB      345             0.0000000000
     40800       345  POPC      H13C           50.2599172379      -20.4646449663      -19.5131958940  MEMB      345             0.0000000000
     40801       345  POPC      C14            51.7437358618      -22.3098934642      -17.9043174013  MEMB      345             0.0000000000
     40802       345  POPC      H14A           52.6912354413      -21.8162363993      -17.7463703287  MEMB      345             0.0000000000
     40803       345  POPC      H14B           50.8316324940      -21.8448704512      -17.5604842000  MEMB      345             0.0000000000
     40804       345  POPC      H14C           51.8093487006      -23.2724719470      -17.4189952950  MEMB      345             0.0000000000
     40805       345  POPC      C15            52.7850368410      -22.8319994031      -20.0674607104  MEMB      345             0.0000000000
     40806       345  POPC      H15A           53.0053371282      -23.8731317969      -19.8833110779  MEMB      345             0.0000000000
     40807       345  POPC      H15B           53.5759220740      -22.1732790896      -19.7403708601  MEMB      345             0.0000000000
     40808       345  POPC      H15C           52.7392313861      -22.8044882437      -21.1461381096  MEMB      345             0.0000000000
     40809       345  POPC      C11            50.1500439433      -24.6889089102      -19.0931202212  MEMB      345             0.0000000000
     40810       345  POPC      H11A           49.2595497248      -25.1935771635      -19.5251513561  MEMB      345             0.0000000000
     40811       345  POPC      H11B           49.9945732344      -24.5185360828      -18.0063253508  MEMB      345             0.0000000000
     40812       345  POPC      P              51.3207810786      -26.9210954818      -18.5694122092  MEMB      345             0.0000000000
     40813       345  POPC      O13            52.3461935630      -26.9060037240      -17.5089050371  MEMB      345             0.0000000000
     40814       345  POPC      O14            51.6097773882      -27.9115540939      -19.6419379594  MEMB      345             0.0000000000
     40815       345  POPC      O12            51.3459970660      -25.4778704122      -19.2960252581  MEMB      345             0.0000000000
     40816       345  POPC      O11            49.9014074577      -26.9818804753      -17.9526524488  MEMB      345             0.0000000000
     40817       345  POPC      C1             49.0050108446      -28.0585318399      -18.0412278620  MEMB      345             0.0000000000
     40818       345  POPC      HA             49.4796875315      -29.0620686976      -18.0850098757  MEMB      345             0.0000000000
     40819       345  POPC      HB             48.4596882486      -27.8572504589      -18.9880277393  MEMB      345             0.0000000000
     40820       345  POPC      C2             48.0069093839      -28.1950608587      -16.8527435194  MEMB      345             0.0000000000
     40821       345  POPC      HS             47.1199909688      -28.7376517602      -17.2442690704  MEMB      345             0.0000000000
     40822       345  POPC      O21            47.5951202760      -26.9177815704      -16.3461573502  MEMB      345             0.0000000000
     40823       345  POPC      C21            47.0941642181      -25.9956381686      -17.1130721602  MEMB      345             0.0000000000
     40824       345  POPC      O22            46.6733570974      -26.1670792931      -18.2614612461  MEMB      345             0.0000000000
     40825       345  POPC      C22            47.1285915119      -24.5755973961      -16.4718257349  MEMB      345             0.0000000000
     40826       345  POPC      H2R            46.0845447024      -24.1957797355      -16.4667123374  MEMB      345             0.0000000000
     40827       345  POPC      H2S            47.7401306910      -23.8738351200      -17.0783488785  MEMB      345             0.0000000000
     40828       345  POPC      C3             48.5781141165      -29.0590588312      -15.7362254772  MEMB      345             0.0000000000
     40829       345  POPC      HX             48.8082497891      -30.0843987599      -16.0968308825  MEMB      345             0.0000000000
     40830       345  POPC      HY             47.8436686906      -29.2101521256      -14.9164195320  MEMB      345             0.0000000000
     40831       345  POPC      O31            49.7730991666      -28.4530900854      -15.1418948567  MEMB      345             0.0000000000
     40832       345  POPC      C31            50.8947316479      -29.1667085568      -15.2632277451  MEMB      345             0.0000000000
     40833       345  POPC      O32            50.9663506990      -30.1755012967      -15.8966312197  MEMB      345             0.0000000000
     40834       345  POPC      C32            52.1001663708      -28.3644349031      -14.8215223491  MEMB      345             0.0000000000
     40835       345  POPC      H2X            52.0651281502      -27.3201270669      -15.1990332069  MEMB      345             0.0000000000
     40836       345  POPC      H2Y            52.9153180332      -28.8967680334      -15.3567513068  MEMB      345             0.0000000000
     40837       345  POPC      C23            47.6365545199      -24.6062836618      -15.0082266538  MEMB      345             0.0000000000
     40838       345  POPC      H3R            47.0965168065      -25.3138490996      -14.3433719599  MEMB      345             0.0000000000
     40839       345  POPC      H3S            47.3037123766      -23.5827551470      -14.7326786608  MEMB      345             0.0000000000
     40840       345  POPC      C24            49.1678550172      -24.7498693249      -14.8116515978  MEMB      345             0.0000000000
     40841       345  POPC      H4R            49.5589279600      -24.0893181371      -15.6148048680  MEMB      345             0.0000000000
     40842       345  POPC      H4S            49.5097772395      -25.7880746022      -15.0104983099  MEMB      345             0.0000000000
     40843       345  POPC      C25            49.6886197590      -24.1783031579      -13.5148904244  MEMB      345             0.0000000000
     40844       345  POPC      H5R            49.1874389178      -24.6532742773      -12.6445218836  MEMB      345             0.0000000000
     40845       345  POPC      H5S            49.2873483360      -23.1453292039      -13.4357265804  MEMB      345             0.0000000000
     40846       345  POPC      C26            51.2285649047      -24.2333276155      -13.3558091151  MEMB      345             0.0000000000
     40847       345  POPC      H6R            51.6641807787      -23.4892211884      -14.0564267601  MEMB      345             0.0000000000
     40848       345  POPC      H6S            51.5262302723      -25.2833270568      -13.5636971287  MEMB      345             0.0000000000
     40849       345  POPC      C27            51.6591305482      -23.8147333447      -11.9217417545  MEMB      345             0.0000000000
     40850       345  POPC      H7R            51.3657312368      -24.6643501439      -11.2687567709  MEMB      345             0.0000000000
     40851       345  POPC      H7S            51.0695998854      -22.9150809937      -11.6435323130  MEMB      345             0.0000000000
     40852       345  POPC      C28            53.1312822253      -23.5290478227      -11.6581125099  MEMB      345             0.0000000000
     40853       345  POPC      H8R            53.0422823836      -22.6867077609      -10.9391804195  MEMB      345             0.0000000000
     40854       345  POPC      H8S            53.4351127919      -22.9755479931      -12.5722495140  MEMB      345             0.0000000000
     40855       345  POPC      C29            54.1101803329      -24.6625766846      -11.3577215731  MEMB      345             0.0000000000
     40856       345  POPC      H91            54.2536857782      -25.3632051720      -12.1934998749  MEMB      345             0.0000000000
     40857       345  POPC      C210           54.6871691588      -24.8240178240      -10.1574744379  MEMB      345             0.0000000000
     40858       345  POPC      H101           55.1968504855      -25.7925713796      -10.0473428047  MEMB      345             0.0000000000
     40859       345  POPC      C211           54.5323738227      -23.9663702598       -8.9522490603  MEMB      345             0.0000000000
     40860       345  POPC      H11R           54.3190544872      -22.9279371861       -9.2846230744  MEMB      345             0.0000000000
     40861       345  POPC      H11S           55.5417993287      -23.8996540862       -8.4929786975  MEMB      345             0.0000000000
     40862       345  POPC      C212           53.5603338073      -24.5023366143       -7.9408575081  MEMB      345             0.0000000000
     40863       345  POPC      H12R           52.5360187795      -24.4996112255       -8.3710806967  MEMB      345             0.0000000000
     40864       345  POPC      H12S           53.6021427341      -23.8280738609       -7.0588470228  MEMB      345             0.0000000000
     40865       345  POPC      C213           53.9588831830      -25.9800099447       -7.5599903951  MEMB      345             0.0000000000
     40866       345  POPC      H13R           55.0574037090      -25.9768136979       -7.3939674498  MEMB      345             0.0000000000
     40867       345  POPC      H13S           53.5652237874      -26.6412771024       -8.3612890889  MEMB      345             0.0000000000
     40868       345  POPC      C214           53.3244964635      -26.4074770943       -6.1451839448  MEMB      345             0.0000000000
     40869       345  POPC      H14R           53.2950830817      -27.5180869963       -6.1439115753  MEMB      345             0.0000000000
     40870       345  POPC      H14S           52.2478005036      -26.1418517082       -6.0781772466  MEMB      345             0.0000000000
     40871       345  POPC      C215           54.0242618520      -25.8254554844       -4.9296450694  MEMB      345             0.0000000000
     40872       345  POPC      H15R           54.0958738605      -24.7292820239       -5.0957675150  MEMB      345             0.0000000000
     40873       345  POPC      H15S           55.0097795604      -26.3335649121       -4.8596405879  MEMB      345             0.0000000000
     40874       345  POPC      C216           53.3402082108      -26.1813367701       -3.5297289394  MEMB      345             0.0000000000
     40875       345  POPC      H16R           53.1853735066      -27.2699684767       -3.3708962103  MEMB      345             0.0000000000
     40876       345  POPC      H16S           52.3993161031      -25.6000601521       -3.6353727323  MEMB      345             0.0000000000
     40877       345  POPC      C217           54.0862409614      -25.6474480883       -2.2737731000  MEMB      345             0.0000000000
     40878       345  POPC      H17R           53.9191984231      -24.5490818554       -2.2768248590  MEMB      345             0.0000000000
     40879       345  POPC      H17S           55.1809388388      -25.6810722535       -2.4603927333  MEMB      345             0.0000000000
     40880       345  POPC      C218           53.6325185580      -26.2676081064       -0.9076072907  MEMB      345             0.0000000000
     40881       345  POPC      H18R           53.8993088459      -27.3360309153       -0.7605824708  MEMB      345             0.0000000000
     40882       345  POPC      H18S           52.5354174502      -26.2073755683       -1.0721136274  MEMB      345             0.0000000000
     40883       345  POPC      H18T           53.8898861316      -25.6524754130       -0.0189599546  MEMB      345             0.0000000000
     40884       345  POPC      C33            52.3790070100      -28.5615335678      -13.3083796676  MEMB      345             0.0000000000
     40885       345  POPC      H3X            53.4001406109      -28.1670001337      -13.1187735846  MEMB      345             0.0000000000
     40886       345  POPC      H3Y            52.3276418538      -29.6413165028      -13.0519596799  MEMB      345             0.0000000000
     40887       345  POPC      C34            51.5857022368      -27.6637128204      -12.3322724271  MEMB      345             0.0000000000
     40888       345  POPC      H4X            50.7005024846      -27.2419995806      -12.8546710155  MEMB      345             0.0000000000
     40889       345  POPC      H4Y            52.2415865853      -26.8092214698      -12.0602778530  MEMB      345             0.0000000000
     40890       345  POPC      C35            51.2465866299      -28.3996908987      -11.1246988807  MEMB      345             0.0000000000
     40891       345  POPC      H5X            52.1090469154      -28.8612790773      -10.5979925971  MEMB      345             0.0000000000
     40892       345  POPC      H5Y            50.5840029406      -29.2245047702      -11.4637945819  MEMB      345             0.0000000000
     40893       345  POPC      C36            50.3739445624      -27.6693673747      -10.0531074664  MEMB      345             0.0000000000
     40894       345  POPC      H6X            49.3953616172      -27.3728650927      -10.4875982782  MEMB      345             0.0000000000
     40895       345  POPC      H6Y            50.8890338674      -26.7334357431       -9.7480892296  MEMB      345             0.0000000000
     40896       345  POPC      C37            50.1829541725      -28.5398532891       -8.8542221959  MEMB      345             0.0000000000
     40897       345  POPC      H7X            51.1683213807      -28.9151233705       -8.5041574993  MEMB      345             0.0000000000
     40898       345  POPC      H7Y            49.6184040547      -29.4448851921       -9.1649013011  MEMB      345             0.0000000000
     40899       345  POPC      C38            49.5995432712      -28.0313234456       -7.5182329938  MEMB      345             0.0000000000
     40900       345  POPC      H8X            50.2738248314      -27.4878809639       -6.8222900677  MEMB      345             0.0000000000
     40901       345  POPC      H8Y            49.3705482857      -28.9257152585       -6.9002157349  MEMB      345             0.0000000000
     40902       345  POPC      C39            48.2483281070      -27.4148471519       -7.7412059834  MEMB      345             0.0000000000
     40903       345  POPC      H9X            47.8136443239      -28.3445770430       -8.1666152478  MEMB      345             0.0000000000
     40904       345  POPC      H9Y            48.3488754691      -26.5326709048       -8.4090198839  MEMB      345             0.0000000000
     40905       345  POPC      C310           47.4791970629      -26.9768864158       -6.4994694543  MEMB      345             0.0000000000
     40906       345  POPC      H10X           47.7918014361      -27.8116531419       -5.8363222774  MEMB      345             0.0000000000
     40907       345  POPC      H10Y           46.4273738853      -26.9202789520       -6.8527178380  MEMB      345             0.0000000000
     40908       345  POPC      C311           47.9891194750      -25.6649407147       -5.9009991665  MEMB      345             0.0000000000
     40909       345  POPC      H11X           48.0357738089      -24.9447212850       -6.7456464357  MEMB      345             0.0000000000
     40910       345  POPC      H11Y           49.0457125098      -25.8481667462       -5.6105507799  MEMB      345             0.0000000000
     40911       345  POPC      C312           47.0809922664      -25.0013492562       -4.7962604719  MEMB      345             0.0000000000
     40912       345  POPC      H12X           46.4878250119      -25.6627650560       -4.1291750010  MEMB      345             0.0000000000
     40913       345  POPC      H12Y           46.2723697245      -24.4411236880       -5.3125914251  MEMB      345             0.0000000000
     40914       345  POPC      C313           47.7856964952      -23.9719947938       -3.8459160281  MEMB      345             0.0000000000
     40915       345  POPC      H13X           48.7203177192      -24.4603517854       -3.4961856351  MEMB      345             0.0000000000
     40916       345  POPC      H13Y           47.0686396875      -23.6259115049       -3.0710764224  MEMB      345             0.0000000000
     40917       345  POPC      C314           48.0888321627      -22.6202652505       -4.5384770180  MEMB      345             0.0000000000
     40918       345  POPC      H14X           47.0834215964      -22.2061087638       -4.7663913131  MEMB      345             0.0000000000
     40919       345  POPC      H14Y           48.5706848702      -22.8166267035       -5.5200983281  MEMB      345             0.0000000000
     40920       345  POPC      C315           48.9262929209      -21.6807377396       -3.6869645901  MEMB      345             0.0000000000
     40921       345  POPC      H15X           48.2394224634      -21.0995188624       -3.0352624148  MEMB      345             0.0000000000
     40922       345  POPC      H15Y           49.3562716076      -20.8650120292       -4.3066663959  MEMB      345             0.0000000000
     40923       345  POPC      C316           50.1179804903      -22.2955426812       -2.8088900402  MEMB      345             0.0000000000
     40924       345  POPC      H16X           49.7749214008      -23.0155162921       -2.0354112437  MEMB      345             0.0000000000
     40925       345  POPC      H16Y           50.5942175455      -21.4227820437       -2.3130995867  MEMB      345             0.0000000000
     40926       345  POPC      H16Z           50.8515229624      -22.7617585487       -3.5009011754  MEMB      345             0.0000000000
     40927       346  POPC      N             -23.0546224346      -53.0883046065      -20.2653217150  MEMB      346             0.0000000000
     40928       346  POPC      C12           -23.3613276627      -53.0199507502      -18.7743489410  MEMB      346             0.0000000000
     40929       346  POPC      H12A          -23.3625042281      -51.9800708765      -18.4827181809  MEMB      346             0.0000000000
     40930       346  POPC      H12B          -22.4425159454      -53.4676127756      -18.4253738049  MEMB      346             0.0000000000
     40931       346  POPC      C13           -21.7971275585      -52.3414724585      -20.4772192227  MEMB      346             0.0000000000
     40932       346  POPC      H13A          -20.9533365153      -53.0101942381      -20.5622366981  MEMB      346             0.0000000000
     40933       346  POPC      H13B          -21.8184123698      -51.9734494663      -21.4923575281  MEMB      346             0.0000000000
     40934       346  POPC      H13C          -21.7653052592      -51.5391563015      -19.7549477278  MEMB      346             0.0000000000
     40935       346  POPC      C14           -22.9444932924      -54.4727609995      -20.6632474113  MEMB      346             0.0000000000
     40936       346  POPC      H14A          -22.5790378579      -54.4631874231      -21.6794908595  MEMB      346             0.0000000000
     40937       346  POPC      H14B          -22.1896502795      -55.0542616535      -20.1548492042  MEMB      346             0.0000000000
     40938       346  POPC      H14C          -23.8982929681      -54.9750888784      -20.5974239169  MEMB      346             0.0000000000
     40939       346  POPC      C15           -24.1887835865      -52.3758386754      -20.9640659371  MEMB      346             0.0000000000
     40940       346  POPC      H15A          -25.1134906680      -52.9322409187      -20.9224327115  MEMB      346             0.0000000000
     40941       346  POPC      H15B          -23.9263760691      -52.2161211965      -21.9994561686  MEMB      346             0.0000000000
     40942       346  POPC      H15C          -24.3864935966      -51.3896496659      -20.5706935346  MEMB      346             0.0000000000
     40943       346  POPC      C11           -24.6725697447      -53.5759059908      -18.1869948262  MEMB      346             0.0000000000
     40944       346  POPC      H11A          -24.7236825428      -53.6475451037      -17.0794857458  MEMB      346             0.0000000000
     40945       346  POPC      H11B          -24.8730564951      -54.6213794306      -18.5049750326  MEMB      346             0.0000000000
     40946       346  POPC      P             -26.2994845346      -51.5850993723      -17.9690369210  MEMB      346             0.0000000000
     40947       346  POPC      O13           -27.6198940421      -51.8417834179      -17.3335806308  MEMB      346             0.0000000000
     40948       346  POPC      O14           -26.2343788130      -50.4589569121      -18.9180417013  MEMB      346             0.0000000000
     40949       346  POPC      O12           -25.8297921823      -52.9179300110      -18.6256142046  MEMB      346             0.0000000000
     40950       346  POPC      O11           -25.1766266521      -51.2548170073      -16.8225284854  MEMB      346             0.0000000000
     40951       346  POPC      C1            -25.0638171290      -50.0609790695      -16.0315731956  MEMB      346             0.0000000000
     40952       346  POPC      HA            -25.8200840301      -49.2864320895      -16.2814895803  MEMB      346             0.0000000000
     40953       346  POPC      HB            -24.1000095649      -49.6147539033      -16.3575775699  MEMB      346             0.0000000000
     40954       346  POPC      C2            -24.9572947237      -50.4014807360      -14.5066349078  MEMB      346             0.0000000000
     40955       346  POPC      HS            -24.0656425440      -51.0640255093      -14.4889789980  MEMB      346             0.0000000000
     40956       346  POPC      O21           -26.1617917370      -50.9545483914      -14.1100518871  MEMB      346             0.0000000000
     40957       346  POPC      C21           -26.3093885961      -52.2878793224      -14.0205590523  MEMB      346             0.0000000000
     40958       346  POPC      O22           -25.5153468989      -53.1406568484      -14.2920973026  MEMB      346             0.0000000000
     40959       346  POPC      C22           -27.7130022406      -52.6419475383      -13.4818539745  MEMB      346             0.0000000000
     40960       346  POPC      H2R           -28.1635211910      -53.2163256629      -14.3193759166  MEMB      346             0.0000000000
     40961       346  POPC      H2S           -28.4352140249      -51.8403270724      -13.2170221910  MEMB      346             0.0000000000
     40962       346  POPC      C3            -24.7174233057      -49.1531083632      -13.5820346183  MEMB      346             0.0000000000
     40963       346  POPC      HX            -25.5175923659      -48.4043142920      -13.7646762843  MEMB      346             0.0000000000
     40964       346  POPC      HY            -23.7675844202      -48.6729125129      -13.9006869770  MEMB      346             0.0000000000
     40965       346  POPC      O31           -24.5562758584      -49.4085333779      -12.1926442678  MEMB      346             0.0000000000
     40966       346  POPC      C31           -25.5791686584      -49.3219099178      -11.3649558671  MEMB      346             0.0000000000
     40967       346  POPC      O32           -26.7829667369      -49.1216306559      -11.7139852633  MEMB      346             0.0000000000
     40968       346  POPC      C32           -24.9357120499      -49.4206501058       -9.9714977344  MEMB      346             0.0000000000
     40969       346  POPC      H2X           -24.4973042826      -48.4380227639       -9.6947981950  MEMB      346             0.0000000000
     40970       346  POPC      H2Y           -24.1494808119      -50.2054358482       -9.9549765446  MEMB      346             0.0000000000
     40971       346  POPC      C23           -27.6931456007      -53.4694767328      -12.1472677423  MEMB      346             0.0000000000
     40972       346  POPC      H3R           -27.0094889003      -54.2994485819      -12.4266983803  MEMB      346             0.0000000000
     40973       346  POPC      H3S           -28.7122254797      -53.9024550553      -12.0560159099  MEMB      346             0.0000000000
     40974       346  POPC      C24           -27.0471174908      -52.7378250852      -10.9891046552  MEMB      346             0.0000000000
     40975       346  POPC      H4R           -27.4268049787      -51.6943287193      -11.0247949254  MEMB      346             0.0000000000
     40976       346  POPC      H4S           -25.9627387693      -52.5245270353      -11.1028935279  MEMB      346             0.0000000000
     40977       346  POPC      C25           -27.4075572525      -53.4982062119       -9.6731980341  MEMB      346             0.0000000000
     40978       346  POPC      H5R           -28.5159217490      -53.5318898751       -9.6045349459  MEMB      346             0.0000000000
     40979       346  POPC      H5S           -27.1316186487      -52.9093323152       -8.7724163419  MEMB      346             0.0000000000
     40980       346  POPC      C26           -26.9291418109      -54.9626456166       -9.5893015930  MEMB      346             0.0000000000
     40981       346  POPC      H6R           -27.2398283287      -55.5866776190      -10.4543914326  MEMB      346             0.0000000000
     40982       346  POPC      H6S           -27.5118562019      -55.3874416068       -8.7441306857  MEMB      346             0.0000000000
     40983       346  POPC      C27           -25.4583384814      -55.2754777302       -9.4930270036  MEMB      346             0.0000000000
     40984       346  POPC      H7R           -24.9055369937      -54.8828726063      -10.3731367521  MEMB      346             0.0000000000
     40985       346  POPC      H7S           -25.3870078132      -56.3838299684       -9.5211045152  MEMB      346             0.0000000000
     40986       346  POPC      C28           -24.7128239294      -54.9054154616       -8.2034291478  MEMB      346             0.0000000000
     40987       346  POPC      H8R           -24.8143166745      -53.8172078474       -8.0038690379  MEMB      346             0.0000000000
     40988       346  POPC      H8S           -23.6193139569      -55.0256771559       -8.3586521080  MEMB      346             0.0000000000
     40989       346  POPC      C29           -25.2810205283      -55.7168218386       -7.0445494478  MEMB      346             0.0000000000
     40990       346  POPC      H91           -24.9976536690      -56.7792427719       -7.0756054816  MEMB      346             0.0000000000
     40991       346  POPC      C210          -25.8536392080      -55.1674906794       -5.9535173843  MEMB      346             0.0000000000
     40992       346  POPC      H101          -26.0474953209      -55.8263155084       -5.0942327617  MEMB      346             0.0000000000
     40993       346  POPC      C211          -26.0337735398      -53.6749321506       -5.6691558025  MEMB      346             0.0000000000
     40994       346  POPC      H11R          -27.0264463587      -53.5743832248       -5.1804717184  MEMB      346             0.0000000000
     40995       346  POPC      H11S          -25.9770976599      -52.9814490508       -6.5352906962  MEMB      346             0.0000000000
     40996       346  POPC      C212          -24.9343095219      -53.1166766291       -4.6262202757  MEMB      346             0.0000000000
     40997       346  POPC      H12R          -24.8889845651      -53.8013078945       -3.7524090797  MEMB      346             0.0000000000
     40998       346  POPC      H12S          -25.0957804334      -52.0433864153       -4.3889529018  MEMB      346             0.0000000000
     40999       346  POPC      C213          -23.4530038908      -53.1257181544       -5.1826252117  MEMB      346             0.0000000000
     41000       346  POPC      H13R          -23.4314740229      -52.4398131282       -6.0563483141  MEMB      346             0.0000000000
     41001       346  POPC      H13S          -23.1511241572      -54.0712316894       -5.6818178623  MEMB      346             0.0000000000
     41002       346  POPC      C214          -22.3726876146      -52.7666104331       -4.2293501869  MEMB      346             0.0000000000
     41003       346  POPC      H14R          -21.3823589931      -52.9445014822       -4.7004396084  MEMB      346             0.0000000000
     41004       346  POPC      H14S          -22.4490942800      -53.3483767135       -3.2859361221  MEMB      346             0.0000000000
     41005       346  POPC      C215          -22.2782060903      -51.2960577133       -3.8570846781  MEMB      346             0.0000000000
     41006       346  POPC      H15R          -23.2511880947      -50.8695869040       -3.5318934333  MEMB      346             0.0000000000
     41007       346  POPC      H15S          -21.9564302962      -50.6924635992       -4.7325595569  MEMB      346             0.0000000000
     41008       346  POPC      C216          -21.3445726704      -51.0372856631       -2.6631162722  MEMB      346             0.0000000000
     41009       346  POPC      H16R          -20.3749029534      -51.4940629364       -2.9553768824  MEMB      346             0.0000000000
     41010       346  POPC      H16S          -21.7111132395      -51.5378662661       -1.7414928823  MEMB      346             0.0000000000
     41011       346  POPC      C217          -21.1891453280      -49.5199465114       -2.3390895056  MEMB      346             0.0000000000
     41012       346  POPC      H17R          -20.9543859142      -49.1245819861       -3.3504727286  MEMB      346             0.0000000000
     41013       346  POPC      H17S          -20.2987397207      -49.4812203689       -1.6757653603  MEMB      346             0.0000000000
     41014       346  POPC      C218          -22.4667371857      -48.9041274013       -1.8030036766  MEMB      346             0.0000000000
     41015       346  POPC      H18R          -22.3809762965      -47.8199757262       -1.5758894153  MEMB      346             0.0000000000
     41016       346  POPC      H18S          -22.6369805568      -49.3876277641       -0.8173231453  MEMB      346             0.0000000000
     41017       346  POPC      H18T          -23.2970966451      -49.0985223247       -2.5150669763  MEMB      346             0.0000000000
     41018       346  POPC      C33           -26.0534885315      -49.7274258280       -8.9980556803  MEMB      346             0.0000000000
     41019       346  POPC      H3X           -26.7480604480      -50.4968160678       -9.3979665408  MEMB      346             0.0000000000
     41020       346  POPC      H3Y           -26.5751719052      -48.7519701254       -8.8948392065  MEMB      346             0.0000000000
     41021       346  POPC      C34           -25.5818338000      -50.1713959736       -7.6351465581  MEMB      346             0.0000000000
     41022       346  POPC      H4X           -24.8446010452      -49.4396461989       -7.2409997767  MEMB      346             0.0000000000
     41023       346  POPC      H4Y           -25.1680477450      -51.2024637663       -7.6362593578  MEMB      346             0.0000000000
     41024       346  POPC      C35           -26.6626329593      -50.2662581541       -6.5822585035  MEMB      346             0.0000000000
     41025       346  POPC      H5X           -26.2052457789      -50.7337770507       -5.6841807008  MEMB      346             0.0000000000
     41026       346  POPC      H5Y           -27.5422385980      -50.8555999664       -6.9188454304  MEMB      346             0.0000000000
     41027       346  POPC      C36           -27.2089578212      -48.9137798664       -6.1483345382  MEMB      346             0.0000000000
     41028       346  POPC      H6X           -27.8955579548      -48.6765312332       -6.9889380307  MEMB      346             0.0000000000
     41029       346  POPC      H6Y           -26.4141844264      -48.1420265465       -6.0643530672  MEMB      346             0.0000000000
     41030       346  POPC      C37           -28.1310068119      -48.8413154952       -4.8811469690  MEMB      346             0.0000000000
     41031       346  POPC      H7X           -29.0347635641      -49.4806798558       -4.9747311555  MEMB      346             0.0000000000
     41032       346  POPC      H7Y           -28.4158749461      -47.7898147458       -4.6631622906  MEMB      346             0.0000000000
     41033       346  POPC      C38           -27.3596121868      -49.3030223109       -3.6154266196  MEMB      346             0.0000000000
     41034       346  POPC      H8X           -26.3846708240      -48.8217969311       -3.3868825971  MEMB      346             0.0000000000
     41035       346  POPC      H8Y           -27.1301753691      -50.3900436673       -3.6234580737  MEMB      346             0.0000000000
     41036       346  POPC      C39           -28.2800060654      -49.2181240709       -2.3815961968  MEMB      346             0.0000000000
     41037       346  POPC      H9X           -29.2351831673      -49.7643742520       -2.5351163388  MEMB      346             0.0000000000
     41038       346  POPC      H9Y           -28.6567567680      -48.1767752439       -2.2923056859  MEMB      346             0.0000000000
     41039       346  POPC      C310          -27.4430244746      -49.4566535985       -1.0996799106  MEMB      346             0.0000000000
     41040       346  POPC      H10X          -28.0796949375      -49.1222979637       -0.2528161431  MEMB      346             0.0000000000
     41041       346  POPC      H10Y          -26.5306265463      -48.8263976563       -1.1677106734  MEMB      346             0.0000000000
     41042       346  POPC      C311          -26.7618709615      -50.8990443574       -1.0208244393  MEMB      346             0.0000000000
     41043       346  POPC      H11X          -25.8385101315      -50.8924163485       -1.6386274599  MEMB      346             0.0000000000
     41044       346  POPC      H11Y          -27.5046351136      -51.6970646029       -1.2348016227  MEMB      346             0.0000000000
     41045       346  POPC      C312          -26.2014380183      -51.1789673840        0.3293439519  MEMB      346             0.0000000000
     41046       346  POPC      H12X          -27.0017952874      -51.5241981686        1.0182313106  MEMB      346             0.0000000000
     41047       346  POPC      H12Y          -25.7252691874      -50.2679857211        0.7508860230  MEMB      346             0.0000000000
     41048       346  POPC      C313          -25.2475011033      -52.4121003467        0.2832064905  MEMB      346             0.0000000000
     41049       346  POPC      H13X          -24.7110129212      -52.2442106869        1.2414938219  MEMB      346             0.0000000000
     41050       346  POPC      H13Y          -24.4933296001      -52.2158035667       -0.5086354625  MEMB      346             0.0000000000
     41051       346  POPC      C314          -25.9100389592      -53.8029826659        0.1723919142  MEMB      346             0.0000000000
     41052       346  POPC      H14X          -26.5125077350      -54.0765800195        1.0648570767  MEMB      346             0.0000000000
     41053       346  POPC      H14Y          -25.0457463944      -54.4972440126        0.0994491924  MEMB      346             0.0000000000
     41054       346  POPC      C315          -26.7144127258      -54.0247859555       -1.0465781176  MEMB      346             0.0000000000
     41055       346  POPC      H15X          -26.4873287398      -53.3356597380       -1.8879206553  MEMB      346             0.0000000000
     41056       346  POPC      H15Y          -27.7501441386      -53.7034777349       -0.8050353835  MEMB      346             0.0000000000
     41057       346  POPC      C316          -26.7223317401      -55.4521940947       -1.5636205887  MEMB      346             0.0000000000
     41058       346  POPC      H16X          -25.7092113058      -55.8924827729       -1.6821700984  MEMB      346             0.0000000000
     41059       346  POPC      H16Y          -27.1845079339      -55.4148063915       -2.5732330597  MEMB      346             0.0000000000
     41060       346  POPC      H16Z          -27.4109173993      -56.1235575979       -1.0073449843  MEMB      346             0.0000000000
     41061       347  POPE      N             -44.1764953851       53.2810965434      -20.3177398426  MEMB      347             0.0000000000
     41062       347  POPE      HN1           -43.5943710517       53.4932812945      -19.4824501728  MEMB      347             0.0000000000
     41063       347  POPE      HN2           -43.5790099969       52.8051378074      -21.0234837328  MEMB      347             0.0000000000
     41064       347  POPE      HN3           -44.6230500181       54.1562045183      -20.6588775342  MEMB      347             0.0000000000
     41065       347  POPE      C12           -45.1461330423       52.2094579100      -19.8818483404  MEMB      347             0.0000000000
     41066       347  POPE      H12A          -44.5180968592       51.2989456366      -19.7776410400  MEMB      347             0.0000000000
     41067       347  POPE      H12B          -45.7537207571       52.0588211630      -20.7997080945  MEMB      347             0.0000000000
     41068       347  POPE      C11           -45.9089215343       52.4879542840      -18.5813094914  MEMB      347             0.0000000000
     41069       347  POPE      H11A          -45.1800490316       52.5941818229      -17.7495752192  MEMB      347             0.0000000000
     41070       347  POPE      H11B          -46.5097566150       51.6132723647      -18.2522964414  MEMB      347             0.0000000000
     41071       347  POPE      P             -48.1610492846       53.8958766233      -18.6775332911  MEMB      347             0.0000000000
     41072       347  POPE      O13           -48.5636116094       53.1252036896      -19.8228733566  MEMB      347             0.0000000000
     41073       347  POPE      O14           -48.5582624745       55.2753959573      -18.6925408834  MEMB      347             0.0000000000
     41074       347  POPE      O11           -48.7146857299       53.1511838511      -17.3772082714  MEMB      347             0.0000000000
     41075       347  POPE      O12           -46.5944569156       53.7104266888      -18.6489465254  MEMB      347             0.0000000000
     41076       347  POPE      C1            -48.1456831045       53.6656215778      -16.1442308312  MEMB      347             0.0000000000
     41077       347  POPE      HA            -47.2113298616       54.2662977183      -16.1664426012  MEMB      347             0.0000000000
     41078       347  POPE      HB            -47.9524773862       52.7636184866      -15.5250515284  MEMB      347             0.0000000000
     41079       347  POPE      C2            -49.2635721638       54.4163319724      -15.2618210991  MEMB      347             0.0000000000
     41080       347  POPE      HS            -48.9224938201       54.2962219735      -14.2113162423  MEMB      347             0.0000000000
     41081       347  POPE      O21           -50.5794688795       53.7841935895      -15.5220076701  MEMB      347             0.0000000000
     41082       347  POPE      C21           -50.8101381113       52.7087282749      -14.7851989900  MEMB      347             0.0000000000
     41083       347  POPE      O22           -50.1018929737       52.1566461983      -13.9672711242  MEMB      347             0.0000000000
     41084       347  POPE      C22           -52.2090949990       52.3060519890      -15.1128416628  MEMB      347             0.0000000000
     41085       347  POPE      H2R           -52.2695800145       51.9121327672      -16.1499000918  MEMB      347             0.0000000000
     41086       347  POPE      H2S           -53.0158144853       53.0685251336      -15.1593127090  MEMB      347             0.0000000000
     41087       347  POPE      C3            -49.3854417672       55.9242605471      -15.5689128862  MEMB      347             0.0000000000
     41088       347  POPE      HX            -50.0817807953       56.0638594722      -16.4232812419  MEMB      347             0.0000000000
     41089       347  POPE      HY            -48.3737558562       56.2645373191      -15.8771734482  MEMB      347             0.0000000000
     41090       347  POPE      O31           -49.9376654373       56.6799336086      -14.5004816577  MEMB      347             0.0000000000
     41091       347  POPE      C31           -49.1464076732       57.1038237898      -13.5467076163  MEMB      347             0.0000000000
     41092       347  POPE      O32           -47.9430649020       56.8811236442      -13.5145409533  MEMB      347             0.0000000000
     41093       347  POPE      C32           -49.9471780034       57.8160510977      -12.3967719184  MEMB      347             0.0000000000
     41094       347  POPE      H2X           -50.7287619044       57.1330664719      -12.0005660513  MEMB      347             0.0000000000
     41095       347  POPE      H2Y           -50.4090977825       58.7160063926      -12.8561536588  MEMB      347             0.0000000000
     41096       347  POPE      C23           -52.8792970320       51.1799720906      -14.1896647352  MEMB      347             0.0000000000
     41097       347  POPE      H3R           -52.1968817697       50.3110176100      -14.0732660101  MEMB      347             0.0000000000
     41098       347  POPE      H3S           -53.7598922001       50.8489739161      -14.7806917812  MEMB      347             0.0000000000
     41099       347  POPE      C24           -53.3796961326       51.6317611287      -12.8425395268  MEMB      347             0.0000000000
     41100       347  POPE      H4R           -54.1784485280       50.9405271013      -12.4982856461  MEMB      347             0.0000000000
     41101       347  POPE      H4S           -53.7517651959       52.6610596456      -13.0334067634  MEMB      347             0.0000000000
     41102       347  POPE      C25           -52.3960787936       51.8169011389      -11.6426103096  MEMB      347             0.0000000000
     41103       347  POPE      H5R           -51.6956540849       52.5673179970      -12.0675823249  MEMB      347             0.0000000000
     41104       347  POPE      H5S           -51.8708705671       50.8406201006      -11.5694492262  MEMB      347             0.0000000000
     41105       347  POPE      C26           -53.1047083197       52.2851499003      -10.3150638496  MEMB      347             0.0000000000
     41106       347  POPE      H6R           -53.6555610062       51.3655660144      -10.0230913300  MEMB      347             0.0000000000
     41107       347  POPE      H6S           -53.8476380078       53.0787692424      -10.5442902424  MEMB      347             0.0000000000
     41108       347  POPE      C27           -52.1174076653       53.0164525213       -9.3264931060  MEMB      347             0.0000000000
     41109       347  POPE      H7R           -51.5407824343       52.3472207363       -8.6527323769  MEMB      347             0.0000000000
     41110       347  POPE      H7S           -52.8262842266       53.2467680962       -8.5026182006  MEMB      347             0.0000000000
     41111       347  POPE      C28           -51.2577727624       54.1719977512       -9.8273258755  MEMB      347             0.0000000000
     41112       347  POPE      H8R           -51.0653418680       54.7769950509       -8.9155866798  MEMB      347             0.0000000000
     41113       347  POPE      H8S           -51.7328299355       54.8426343157      -10.5749147325  MEMB      347             0.0000000000
     41114       347  POPE      C29           -49.9077419771       53.7005738994      -10.3604754039  MEMB      347             0.0000000000
     41115       347  POPE      H91           -49.8406044044       53.5280777420      -11.4447901339  MEMB      347             0.0000000000
     41116       347  POPE      C210          -48.6827829273       53.8206831154       -9.7944843641  MEMB      347             0.0000000000
     41117       347  POPE      H101          -47.8954115719       53.1631382422      -10.1915745411  MEMB      347             0.0000000000
     41118       347  POPE      C211          -48.3179968773       54.4513255820       -8.5152139678  MEMB      347             0.0000000000
     41119       347  POPE      H11R          -47.5910236970       53.8168962299       -7.9644593036  MEMB      347             0.0000000000
     41120       347  POPE      H11S          -49.1335246416       54.5586599906       -7.7684099435  MEMB      347             0.0000000000
     41121       347  POPE      C212          -47.6177363478       55.8729026777       -8.6859508744  MEMB      347             0.0000000000
     41122       347  POPE      H12R          -48.3936416784       56.6425201536       -8.8859024359  MEMB      347             0.0000000000
     41123       347  POPE      H12S          -46.9254983609       55.7311000709       -9.5432842038  MEMB      347             0.0000000000
     41124       347  POPE      C213          -46.7337280583       56.3371444341       -7.4862997460  MEMB      347             0.0000000000
     41125       347  POPE      H13R          -46.2523711148       57.2752362775       -7.8364434620  MEMB      347             0.0000000000
     41126       347  POPE      H13S          -45.8731566963       55.6798188288       -7.2379824912  MEMB      347             0.0000000000
     41127       347  POPE      C214          -47.5762279804       56.7402730941       -6.2606632055  MEMB      347             0.0000000000
     41128       347  POPE      H14R          -48.6511849976       56.8348041901       -6.5249589233  MEMB      347             0.0000000000
     41129       347  POPE      H14S          -47.2726829877       57.7514383204       -5.9146482682  MEMB      347             0.0000000000
     41130       347  POPE      C215          -47.5960712430       55.8205155594       -5.0216779449  MEMB      347             0.0000000000
     41131       347  POPE      H15R          -46.7339736075       55.1393956644       -5.1865555807  MEMB      347             0.0000000000
     41132       347  POPE      H15S          -48.5250725280       55.2188300478       -4.9254898297  MEMB      347             0.0000000000
     41133       347  POPE      C216          -47.2587654292       56.4348831783       -3.5986476930  MEMB      347             0.0000000000
     41134       347  POPE      H16R          -46.4723471022       57.2153513555       -3.6807271660  MEMB      347             0.0000000000
     41135       347  POPE      H16S          -46.7436680292       55.7717523519       -2.8711493870  MEMB      347             0.0000000000
     41136       347  POPE      C217          -48.5801521172       56.9228356506       -2.9033895718  MEMB      347             0.0000000000
     41137       347  POPE      H17R          -49.2444255287       56.0354086132       -2.8289938816  MEMB      347             0.0000000000
     41138       347  POPE      H17S          -49.2039846839       57.6477825413       -3.4687269197  MEMB      347             0.0000000000
     41139       347  POPE      C218          -48.3423590545       57.6112598566       -1.5547133552  MEMB      347             0.0000000000
     41140       347  POPE      H18R          -47.8493831913       57.0062341702       -0.7639918225  MEMB      347             0.0000000000
     41141       347  POPE      H18S          -49.2931050168       57.9677123885       -1.1037760728  MEMB      347             0.0000000000
     41142       347  POPE      H18T          -47.5876129204       58.4236110496       -1.6237451745  MEMB      347             0.0000000000
     41143       347  POPE      C33           -49.0496792226       58.2938138963      -11.1836528513  MEMB      347             0.0000000000
     41144       347  POPE      H3X           -48.2091136744       58.8450145710      -11.6568839650  MEMB      347             0.0000000000
     41145       347  POPE      H3Y           -48.5507690557       57.4423949205      -10.6732648870  MEMB      347             0.0000000000
     41146       347  POPE      C34           -49.8588632656       59.1263943199      -10.1486728274  MEMB      347             0.0000000000
     41147       347  POPE      H4X           -50.3722707170       59.9698669185      -10.6578754308  MEMB      347             0.0000000000
     41148       347  POPE      H4Y           -49.1781012044       59.4904559016       -9.3497091282  MEMB      347             0.0000000000
     41149       347  POPE      C35           -50.9235168866       58.2875851068       -9.4182152123  MEMB      347             0.0000000000
     41150       347  POPE      H5X           -50.4719706936       57.3939035009       -8.9368008102  MEMB      347             0.0000000000
     41151       347  POPE      H5Y           -51.5853644752       57.7322909114      -10.1167328350  MEMB      347             0.0000000000
     41152       347  POPE      C36           -51.7803051953       59.0070963536       -8.3603230120  MEMB      347             0.0000000000
     41153       347  POPE      H6X           -52.5697594402       59.5282464932       -8.9429774395  MEMB      347             0.0000000000
     41154       347  POPE      H6Y           -51.2622284073       59.6726122009       -7.6371318019  MEMB      347             0.0000000000
     41155       347  POPE      C37           -52.7442914360       58.1414047123       -7.4753493003  MEMB      347             0.0000000000
     41156       347  POPE      H7X           -53.3185041121       57.2707972251       -7.8582896552  MEMB      347             0.0000000000
     41157       347  POPE      H7Y           -53.4880503826       58.8918004397       -7.1317653553  MEMB      347             0.0000000000
     41158       347  POPE      C38           -51.9813527757       57.6331208420       -6.2167661335  MEMB      347             0.0000000000
     41159       347  POPE      H8X           -51.5616397182       58.4617702643       -5.6072561444  MEMB      347             0.0000000000
     41160       347  POPE      H8Y           -51.1909389726       56.9948850062       -6.6664564755  MEMB      347             0.0000000000
     41161       347  POPE      C39           -52.7685916391       56.7792085003       -5.2270765677  MEMB      347             0.0000000000
     41162       347  POPE      H9X           -53.7233541859       57.3091560136       -5.0223684475  MEMB      347             0.0000000000
     41163       347  POPE      H9Y           -52.2591935682       56.6838567402       -4.2443544108  MEMB      347             0.0000000000
     41164       347  POPE      C310          -52.7862966454       55.3188801396       -5.6137714012  MEMB      347             0.0000000000
     41165       347  POPE      H10X          -51.7367315116       55.0385308276       -5.8464467097  MEMB      347             0.0000000000
     41166       347  POPE      H10Y          -53.3876969348       55.1327794946       -6.5291975752  MEMB      347             0.0000000000
     41167       347  POPE      C311          -53.3320175771       54.4560601444       -4.5148726096  MEMB      347             0.0000000000
     41168       347  POPE      H11X          -54.3465758456       54.8768586578       -4.3477767748  MEMB      347             0.0000000000
     41169       347  POPE      H11Y          -52.6257962428       54.5783148758       -3.6659746024  MEMB      347             0.0000000000
     41170       347  POPE      C312          -53.4314560306       52.9606802734       -4.9594259673  MEMB      347             0.0000000000
     41171       347  POPE      H12X          -52.4224042319       52.5883420513       -5.2378140707  MEMB      347             0.0000000000
     41172       347  POPE      H12Y          -54.1911094241       52.9103680349       -5.7685715296  MEMB      347             0.0000000000
     41173       347  POPE      C313          -53.9808831120       52.0366620585       -3.8713835968  MEMB      347             0.0000000000
     41174       347  POPE      H13X          -53.2472576652       51.6701706631       -3.1218513047  MEMB      347             0.0000000000
     41175       347  POPE      H13Y          -54.4221147557       51.1856857097       -4.4330551397  MEMB      347             0.0000000000
     41176       347  POPE      C314          -55.1802327196       52.6556521036       -3.1764580893  MEMB      347             0.0000000000
     41177       347  POPE      H14X          -55.9441477433       52.8862883842       -3.9494790248  MEMB      347             0.0000000000
     41178       347  POPE      H14Y          -54.8175488346       53.5906426395       -2.6983643698  MEMB      347             0.0000000000
     41179       347  POPE      C315          -55.6934540330       51.8061564772       -2.0248495193  MEMB      347             0.0000000000
     41180       347  POPE      H15X          -56.4887635701       52.3201858162       -1.4438359767  MEMB      347             0.0000000000
     41181       347  POPE      H15Y          -54.7973250339       51.6179654807       -1.3956768162  MEMB      347             0.0000000000
     41182       347  POPE      C316          -56.1574222182       50.4271536449       -2.3587946039  MEMB      347             0.0000000000
     41183       347  POPE      H16X          -55.5403031538       49.6405222502       -2.8432519987  MEMB      347             0.0000000000
     41184       347  POPE      H16Y          -57.0206945245       50.5521503341       -3.0468779465  MEMB      347             0.0000000000
     41185       347  POPE      H16Z          -56.6112356752       49.9246362901       -1.4779720971  MEMB      347             0.0000000000
     41186       348  POPC      N              41.9945303828       51.0762498551      -20.7511150088  MEMB      348             0.0000000000
     41187       348  POPC      C12            42.9067704204       50.7516347466      -19.5907634754  MEMB      348             0.0000000000
     41188       348  POPC      H12A           43.9067142414       51.0813601832      -19.8311661296  MEMB      348             0.0000000000
     41189       348  POPC      H12B           42.9003975318       49.6725094061      -19.5477746184  MEMB      348             0.0000000000
     41190       348  POPC      C13            42.0280212225       52.4904175615      -21.0989697766  MEMB      348             0.0000000000
     41191       348  POPC      H13A           43.0519811434       52.8331042651      -21.1206913861  MEMB      348             0.0000000000
     41192       348  POPC      H13B           41.6056035640       52.7156028452      -22.0670889419  MEMB      348             0.0000000000
     41193       348  POPC      H13C           41.5082603954       53.0782850217      -20.3569046815  MEMB      348             0.0000000000
     41194       348  POPC      C14            42.5202941577       50.3789112285      -21.9981746938  MEMB      348             0.0000000000
     41195       348  POPC      H14A           41.7840497669       50.3309600945      -22.7868726435  MEMB      348             0.0000000000
     41196       348  POPC      H14B           43.3873288680       50.9506207133      -22.2944840126  MEMB      348             0.0000000000
     41197       348  POPC      H14C           42.8559592168       49.3943171363      -21.7078234830  MEMB      348             0.0000000000
     41198       348  POPC      C15            40.6253322118       50.6441815978      -20.4270285456  MEMB      348             0.0000000000
     41199       348  POPC      H15A           40.4747461644       51.1406355087      -19.4797917794  MEMB      348             0.0000000000
     41200       348  POPC      H15B           40.6480460869       49.5649286351      -20.4601518617  MEMB      348             0.0000000000
     41201       348  POPC      H15C           39.9516435378       50.9134130156      -21.2270648992  MEMB      348             0.0000000000
     41202       348  POPC      C11            42.5021495891       51.2829291220      -18.1144026896  MEMB      348             0.0000000000
     41203       348  POPC      H11A           43.3555026022       50.9494169711      -17.4860085974  MEMB      348             0.0000000000
     41204       348  POPC      H11B           41.5691803826       50.7531129761      -17.8259856429  MEMB      348             0.0000000000
     41205       348  POPC      P              41.2507304237       53.4986135557      -17.4339627080  MEMB      348             0.0000000000
     41206       348  POPC      O13            39.9341571708       53.2732500015      -18.1090908890  MEMB      348             0.0000000000
     41207       348  POPC      O14            41.6120130622       54.9105418940      -17.1517607497  MEMB      348             0.0000000000
     41208       348  POPC      O12            42.3936755034       52.7143525198      -18.1887888425  MEMB      348             0.0000000000
     41209       348  POPC      O11            41.3174995938       52.6412665709      -16.1359426176  MEMB      348             0.0000000000
     41210       348  POPC      C1             41.6580698890       53.1955203485      -14.8978153205  MEMB      348             0.0000000000
     41211       348  POPC      HA             40.7995906334       52.9388911832      -14.2409471841  MEMB      348             0.0000000000
     41212       348  POPC      HB             41.8076472884       54.2955129789      -14.9421302390  MEMB      348             0.0000000000
     41213       348  POPC      C2             42.9023132838       52.5490196066      -14.3249237856  MEMB      348             0.0000000000
     41214       348  POPC      HS             43.7061459134       52.6708216802      -15.0821146601  MEMB      348             0.0000000000
     41215       348  POPC      O21            42.6118139446       51.1765593661      -14.1866958561  MEMB      348             0.0000000000
     41216       348  POPC      C21            43.6434252642       50.3668139981      -13.9783242791  MEMB      348             0.0000000000
     41217       348  POPC      O22            44.8135460436       50.6667634531      -14.1434265340  MEMB      348             0.0000000000
     41218       348  POPC      C22            43.2301533606       49.0031874148      -13.3470235102  MEMB      348             0.0000000000
     41219       348  POPC      H2R            43.7635174884       48.1793240582      -13.8676896761  MEMB      348             0.0000000000
     41220       348  POPC      H2S            42.1719182528       48.7492886416      -13.5706184996  MEMB      348             0.0000000000
     41221       348  POPC      C3             43.4045250836       53.0708343694      -12.8990728808  MEMB      348             0.0000000000
     41222       348  POPC      HX             43.7639099074       54.0815081012      -13.1883865968  MEMB      348             0.0000000000
     41223       348  POPC      HY             44.3215862035       52.5688396199      -12.5231463472  MEMB      348             0.0000000000
     41224       348  POPC      O31            42.4451759318       52.9798210985      -11.7885222170  MEMB      348             0.0000000000
     41225       348  POPC      C31            41.6008712984       53.9287439446      -11.4821132136  MEMB      348             0.0000000000
     41226       348  POPC      O32            41.2899467604       54.9255198962      -12.1844891060  MEMB      348             0.0000000000
     41227       348  POPC      C32            41.2215816715       53.7080090424      -10.0231403491  MEMB      348             0.0000000000
     41228       348  POPC      H2X            41.4006420824       54.7217373060       -9.6052725298  MEMB      348             0.0000000000
     41229       348  POPC      H2Y            41.8686020925       52.9443475049       -9.5409511555  MEMB      348             0.0000000000
     41230       348  POPC      C23            43.6012147706       49.0422084001      -11.8398876045  MEMB      348             0.0000000000
     41231       348  POPC      H3R            44.1048642459       50.0108207880      -11.6338572332  MEMB      348             0.0000000000
     41232       348  POPC      H3S            44.2782528291       48.1807250717      -11.6560766987  MEMB      348             0.0000000000
     41233       348  POPC      C24            42.3208260702       49.0523578309      -10.9810958090  MEMB      348             0.0000000000
     41234       348  POPC      H4R            41.5718198418       48.3325170432      -11.3749744498  MEMB      348             0.0000000000
     41235       348  POPC      H4S            41.8127235275       50.0354017232      -11.0799753457  MEMB      348             0.0000000000
     41236       348  POPC      C25            42.5154470608       48.7589837704       -9.5070023829  MEMB      348             0.0000000000
     41237       348  POPC      H5R            43.0710725041       47.7979701704       -9.4616745265  MEMB      348             0.0000000000
     41238       348  POPC      H5S            41.5397394957       48.6588968686       -8.9851801627  MEMB      348             0.0000000000
     41239       348  POPC      C26            43.3882809933       49.8787428096       -8.7569901160  MEMB      348             0.0000000000
     41240       348  POPC      H6R            43.1876107221       50.8745950789       -9.2068019207  MEMB      348             0.0000000000
     41241       348  POPC      H6S            44.4764366751       49.7571954747       -8.9453117323  MEMB      348             0.0000000000
     41242       348  POPC      C27            43.2443050728       50.0879292842       -7.2303469699  MEMB      348             0.0000000000
     41243       348  POPC      H7R            43.0617426883       49.1178306364       -6.7205430868  MEMB      348             0.0000000000
     41244       348  POPC      H7S            42.2115349713       50.4915760840       -7.1612363297  MEMB      348             0.0000000000
     41245       348  POPC      C28            44.2745438724       50.8671959553       -6.4051927396  MEMB      348             0.0000000000
     41246       348  POPC      H8R            45.1622156675       50.2335295837       -6.1934685144  MEMB      348             0.0000000000
     41247       348  POPC      H8S            43.8538598782       50.9375662244       -5.3793309033  MEMB      348             0.0000000000
     41248       348  POPC      C29            44.6310790141       52.1942782312       -7.0288804301  MEMB      348             0.0000000000
     41249       348  POPC      H91            45.4882732671       52.0939154726       -7.7108963154  MEMB      348             0.0000000000
     41250       348  POPC      C210           44.1188366813       53.3950240835       -6.8421599633  MEMB      348             0.0000000000
     41251       348  POPC      H101           44.7802787398       54.2181349073       -7.1503524069  MEMB      348             0.0000000000
     41252       348  POPC      C211           43.0348654190       53.8257103424       -5.8309357285  MEMB      348             0.0000000000
     41253       348  POPC      H11R           42.8387635752       52.9405876597       -5.1887346372  MEMB      348             0.0000000000
     41254       348  POPC      H11S           42.1627993710       54.1847194531       -6.4182473049  MEMB      348             0.0000000000
     41255       348  POPC      C212           43.5966053992       54.8065653242       -4.8269906165  MEMB      348             0.0000000000
     41256       348  POPC      H12R           43.6858037889       55.8524352454       -5.1910246458  MEMB      348             0.0000000000
     41257       348  POPC      H12S           44.6014316598       54.4563186350       -4.5076597093  MEMB      348             0.0000000000
     41258       348  POPC      C213           42.8272344994       54.8978268342       -3.4784843874  MEMB      348             0.0000000000
     41259       348  POPC      H13R           43.2717454021       55.6448422264       -2.7866029406  MEMB      348             0.0000000000
     41260       348  POPC      H13S           42.8563640246       53.9195535615       -2.9526953792  MEMB      348             0.0000000000
     41261       348  POPC      C214           41.3081991765       55.2621431587       -3.6873372309  MEMB      348             0.0000000000
     41262       348  POPC      H14R           40.7941360207       54.4046585589       -4.1718779863  MEMB      348             0.0000000000
     41263       348  POPC      H14S           41.2847900916       56.1106034552       -4.4041970078  MEMB      348             0.0000000000
     41264       348  POPC      C215           40.5480996875       55.6302366132       -2.4329055741  MEMB      348             0.0000000000
     41265       348  POPC      H15R           39.6878276767       56.2969310215       -2.6560007084  MEMB      348             0.0000000000
     41266       348  POPC      H15S           41.1576330695       56.3580203777       -1.8557395471  MEMB      348             0.0000000000
     41267       348  POPC      C216           40.0851969138       54.4662111883       -1.6292043463  MEMB      348             0.0000000000
     41268       348  POPC      H16R           40.8919875871       53.7462830540       -1.3740316603  MEMB      348             0.0000000000
     41269       348  POPC      H16S           39.3367385450       53.8589669555       -2.1818214037  MEMB      348             0.0000000000
     41270       348  POPC      C217           39.4140930685       54.9639459730       -0.2771222045  MEMB      348             0.0000000000
     41271       348  POPC      H17R           40.1619929321       55.3753543844        0.4340102940  MEMB      348             0.0000000000
     41272       348  POPC      H17S           39.0340395718       54.0658565062        0.2551517086  MEMB      348             0.0000000000
     41273       348  POPC      C218           38.2358585604       55.9363393808       -0.4984294659  MEMB      348             0.0000000000
     41274       348  POPC      H18R           37.5082399505       55.5227422437       -1.2290642525  MEMB      348             0.0000000000
     41275       348  POPC      H18S           38.5201158817       56.9232795083       -0.9220645708  MEMB      348             0.0000000000
     41276       348  POPC      H18T           37.6776996490       56.1548015245        0.4370136557  MEMB      348             0.0000000000
     41277       348  POPC      C33            39.7258024033       53.3621217459       -9.6863285123  MEMB      348             0.0000000000
     41278       348  POPC      H3X            39.5856561201       52.3821721714      -10.1906881296  MEMB      348             0.0000000000
     41279       348  POPC      H3Y            39.0380227780       54.1376164738      -10.0861885398  MEMB      348             0.0000000000
     41280       348  POPC      C34            39.6348159933       53.2887203471       -8.1146202566  MEMB      348             0.0000000000
     41281       348  POPC      H4X            39.8328391388       54.3134680013       -7.7338312832  MEMB      348             0.0000000000
     41282       348  POPC      H4Y            40.4771174253       52.6276850616       -7.8181716387  MEMB      348             0.0000000000
     41283       348  POPC      C35            38.3277403010       52.8073312393       -7.5737622310  MEMB      348             0.0000000000
     41284       348  POPC      H5X            37.5362164393       53.2946407722       -8.1823187166  MEMB      348             0.0000000000
     41285       348  POPC      H5Y            38.0718252348       53.1262167038       -6.5407372771  MEMB      348             0.0000000000
     41286       348  POPC      C36            38.1188088410       51.2671701769       -7.5706324117  MEMB      348             0.0000000000
     41287       348  POPC      H6X            37.9442702675       50.9118111619       -8.6086966049  MEMB      348             0.0000000000
     41288       348  POPC      H6Y            37.2035463357       51.0649215449       -6.9742178282  MEMB      348             0.0000000000
     41289       348  POPC      C37            39.1750641224       50.3974975386       -6.9168497386  MEMB      348             0.0000000000
     41290       348  POPC      H7X            40.0312976177       50.4460001815       -7.6231303344  MEMB      348             0.0000000000
     41291       348  POPC      H7Y            38.9322311443       49.3170023899       -7.0056396061  MEMB      348             0.0000000000
     41292       348  POPC      C38            39.4131014107       50.8602793331       -5.5403807156  MEMB      348             0.0000000000
     41293       348  POPC      H8X            38.4316436183       50.7728929143       -5.0271306560  MEMB      348             0.0000000000
     41294       348  POPC      H8Y            39.7460481192       51.9194079793       -5.4989790727  MEMB      348             0.0000000000
     41295       348  POPC      C39            40.4370168540       50.0478820753       -4.7268666057  MEMB      348             0.0000000000
     41296       348  POPC      H9X            41.4569214099       50.2056530782       -5.1382355134  MEMB      348             0.0000000000
     41297       348  POPC      H9Y            40.1706303721       48.9771887434       -4.8571542864  MEMB      348             0.0000000000
     41298       348  POPC      C310           40.3225859373       50.2950360453       -3.1798689990  MEMB      348             0.0000000000
     41299       348  POPC      H10X           39.3171194819       49.9150322770       -2.8988792288  MEMB      348             0.0000000000
     41300       348  POPC      H10Y           40.5637295696       51.3563594635       -2.9567926079  MEMB      348             0.0000000000
     41301       348  POPC      C311           41.1188184022       49.2779621976       -2.3142654336  MEMB      348             0.0000000000
     41302       348  POPC      H11X           40.7309022164       48.3195728726       -2.7208760731  MEMB      348             0.0000000000
     41303       348  POPC      H11Y           40.7335565083       49.4391789427       -1.2847487236  MEMB      348             0.0000000000
     41304       348  POPC      C312           42.6746072134       49.2790504145       -2.3241235375  MEMB      348             0.0000000000
     41305       348  POPC      H12X           42.9933957020       49.1037927486       -3.3738757411  MEMB      348             0.0000000000
     41306       348  POPC      H12Y           42.9866875361       48.4177590126       -1.6955512055  MEMB      348             0.0000000000
     41307       348  POPC      C313           43.2633141587       50.6693026101       -1.9676845634  MEMB      348             0.0000000000
     41308       348  POPC      H13X           43.0972251075       51.4857283034       -2.7026575477  MEMB      348             0.0000000000
     41309       348  POPC      H13Y           44.3694520482       50.5836756703       -2.0264045829  MEMB      348             0.0000000000
     41310       348  POPC      C314           42.8948172170       51.0961004460       -0.5013775555  MEMB      348             0.0000000000
     41311       348  POPC      H14X           43.3986319170       50.3220086107        0.1160949442  MEMB      348             0.0000000000
     41312       348  POPC      H14Y           41.8003860683       51.0046000326       -0.3335426704  MEMB      348             0.0000000000
     41313       348  POPC      C315           43.3925759990       52.4508893458       -0.0701308390  MEMB      348             0.0000000000
     41314       348  POPC      H15X           42.7835087881       52.8523802921        0.7678224101  MEMB      348             0.0000000000
     41315       348  POPC      H15Y           43.3173160173       53.1709312747       -0.9128624377  MEMB      348             0.0000000000
     41316       348  POPC      C316           44.8091830863       52.2751520424        0.4447913955  MEMB      348             0.0000000000
     41317       348  POPC      H16X           44.8480134218       51.7607453695        1.4287631251  MEMB      348             0.0000000000
     41318       348  POPC      H16Y           45.2305528258       53.2950020424        0.5739223064  MEMB      348             0.0000000000
     41319       348  POPC      H16Z           45.3113089338       51.5824900806       -0.2640161976  MEMB      348             0.0000000000
     41320       349  POPC      N             -44.0244163644      -41.3555615737      -21.3252021953  MEMB      349             0.0000000000
     41321       349  POPC      C12           -45.1020678773      -41.7959648098      -20.2003240840  MEMB      349             0.0000000000
     41322       349  POPC      H12A          -45.8349830703      -42.4114395438      -20.7007501763  MEMB      349             0.0000000000
     41323       349  POPC      H12B          -45.6327816797      -40.8963509891      -19.9256645242  MEMB      349             0.0000000000
     41324       349  POPC      C13           -42.9957621794      -40.4801457179      -20.6479039447  MEMB      349             0.0000000000
     41325       349  POPC      H13A          -43.4001106599      -39.5712523618      -20.2274100888  MEMB      349             0.0000000000
     41326       349  POPC      H13B          -42.5115068901      -41.0072448247      -19.8391621019  MEMB      349             0.0000000000
     41327       349  POPC      H13C          -42.2247440142      -40.3468968632      -21.3923337897  MEMB      349             0.0000000000
     41328       349  POPC      C14           -43.3221452415      -42.5569209090      -21.8435953827  MEMB      349             0.0000000000
     41329       349  POPC      H14A          -42.7477397648      -42.4148853566      -22.7470800575  MEMB      349             0.0000000000
     41330       349  POPC      H14B          -42.5694554259      -42.9648612945      -21.1852316672  MEMB      349             0.0000000000
     41331       349  POPC      H14C          -44.0770843511      -43.2831903866      -22.1062732996  MEMB      349             0.0000000000
     41332       349  POPC      C15           -44.6930068055      -40.6576300851      -22.4965170880  MEMB      349             0.0000000000
     41333       349  POPC      H15A          -44.0285601474      -40.2342569133      -23.2352090269  MEMB      349             0.0000000000
     41334       349  POPC      H15B          -45.1938442384      -39.7592481791      -22.1671663471  MEMB      349             0.0000000000
     41335       349  POPC      H15C          -45.3347994395      -41.3320775274      -23.0438950078  MEMB      349             0.0000000000
     41336       349  POPC      C11           -44.6237366323      -42.6648491581      -19.0012726893  MEMB      349             0.0000000000
     41337       349  POPC      H11A          -44.0883493989      -43.5245640808      -19.4579691027  MEMB      349             0.0000000000
     41338       349  POPC      H11B          -45.5007288532      -43.0649180616      -18.4488684138  MEMB      349             0.0000000000
     41339       349  POPC      P             -43.9575443758      -41.6218679245      -16.6483413954  MEMB      349             0.0000000000
     41340       349  POPC      O13           -43.7125652220      -42.9165181083      -15.8897053900  MEMB      349             0.0000000000
     41341       349  POPC      O14           -45.2745396499      -40.9626396648      -16.5318794643  MEMB      349             0.0000000000
     41342       349  POPC      O12           -43.7330086659      -42.0089631772      -18.1885602131  MEMB      349             0.0000000000
     41343       349  POPC      O11           -42.8057303481      -40.6808164547      -16.2266981583  MEMB      349             0.0000000000
     41344       349  POPC      C1            -42.0943204794      -39.9437173825      -17.2450712083  MEMB      349             0.0000000000
     41345       349  POPC      HA            -42.7976377197      -39.3198154793      -17.8370276190  MEMB      349             0.0000000000
     41346       349  POPC      HB            -41.6149790577      -40.5510522699      -18.0423774280  MEMB      349             0.0000000000
     41347       349  POPC      C2            -41.0672516913      -38.9736594047      -16.6042054455  MEMB      349             0.0000000000
     41348       349  POPC      HS            -40.4252076795      -38.5710989833      -17.4166374697  MEMB      349             0.0000000000
     41349       349  POPC      O21           -40.2336106584      -39.5542301024      -15.6122640902  MEMB      349             0.0000000000
     41350       349  POPC      C21           -39.3681287735      -40.3859251578      -15.9908969234  MEMB      349             0.0000000000
     41351       349  POPC      O22           -38.8396447101      -40.4238819211      -17.0814027636  MEMB      349             0.0000000000
     41352       349  POPC      C22           -39.2195012503      -41.3718882626      -14.7923014976  MEMB      349             0.0000000000
     41353       349  POPC      H2R           -38.7206505661      -40.8532019059      -13.9458771689  MEMB      349             0.0000000000
     41354       349  POPC      H2S           -38.5674894076      -42.2105105221      -15.1177463004  MEMB      349             0.0000000000
     41355       349  POPC      C3            -41.7727857194      -37.7419573956      -15.9269286006  MEMB      349             0.0000000000
     41356       349  POPC      HX            -42.4560746190      -37.3208027912      -16.6950863189  MEMB      349             0.0000000000
     41357       349  POPC      HY            -40.9444256940      -37.0845241458      -15.5864555445  MEMB      349             0.0000000000
     41358       349  POPC      O31           -42.5051119598      -38.2962351768      -14.7814917279  MEMB      349             0.0000000000
     41359       349  POPC      C31           -43.8019199969      -37.9871696652      -14.7219262666  MEMB      349             0.0000000000
     41360       349  POPC      O32           -44.5752393781      -37.4718687881      -15.5332626637  MEMB      349             0.0000000000
     41361       349  POPC      C32           -44.2801854274      -38.5128705629      -13.3788027235  MEMB      349             0.0000000000
     41362       349  POPC      H2X           -43.3825007460      -38.6025408305      -12.7303873481  MEMB      349             0.0000000000
     41363       349  POPC      H2Y           -44.6426980689      -39.5618934787      -13.4283647692  MEMB      349             0.0000000000
     41364       349  POPC      C23           -40.5662184655      -42.0214375504      -14.4212344799  MEMB      349             0.0000000000
     41365       349  POPC      H3R           -40.8683459875      -42.5948529388      -15.3235842269  MEMB      349             0.0000000000
     41366       349  POPC      H3S           -41.3017614242      -41.2211388962      -14.1914089055  MEMB      349             0.0000000000
     41367       349  POPC      C24           -40.4789372530      -42.9764989780      -13.2461616077  MEMB      349             0.0000000000
     41368       349  POPC      H4R           -39.6298126145      -43.6085937530      -13.5834513895  MEMB      349             0.0000000000
     41369       349  POPC      H4S           -41.4097649124      -43.5437814061      -13.0315184323  MEMB      349             0.0000000000
     41370       349  POPC      C25           -40.0093667416      -42.3592024310      -11.8991441158  MEMB      349             0.0000000000
     41371       349  POPC      H5R           -39.0197850375      -41.9336974167      -12.1711631658  MEMB      349             0.0000000000
     41372       349  POPC      H5S           -39.7567259435      -43.1358686715      -11.1459618583  MEMB      349             0.0000000000
     41373       349  POPC      C26           -40.9701739349      -41.3832192749      -11.3747358937  MEMB      349             0.0000000000
     41374       349  POPC      H6R           -41.8251209067      -41.9196163739      -10.9103384515  MEMB      349             0.0000000000
     41375       349  POPC      H6S           -41.3716888969      -40.7006505542      -12.1539704834  MEMB      349             0.0000000000
     41376       349  POPC      C27           -40.2478477911      -40.4724417678      -10.2992400553  MEMB      349             0.0000000000
     41377       349  POPC      H7R           -39.4925289157      -39.8514563412      -10.8266783232  MEMB      349             0.0000000000
     41378       349  POPC      H7S           -39.7163050195      -41.2203819836       -9.6728467426  MEMB      349             0.0000000000
     41379       349  POPC      C28           -41.2404553247      -39.5418265756       -9.5576072942  MEMB      349             0.0000000000
     41380       349  POPC      H8R           -41.9112512504      -39.0999278567      -10.3251228677  MEMB      349             0.0000000000
     41381       349  POPC      H8S           -40.8483185989      -38.5606348669       -9.2143683634  MEMB      349             0.0000000000
     41382       349  POPC      C29           -42.0021099740      -40.2999240766       -8.4866802499  MEMB      349             0.0000000000
     41383       349  POPC      H91           -43.0956946605      -40.2448538690       -8.5917507215  MEMB      349             0.0000000000
     41384       349  POPC      C210          -41.5004445086      -40.7383692234       -7.3807573410  MEMB      349             0.0000000000
     41385       349  POPC      H101          -42.1645038443      -41.2472912826       -6.6665981795  MEMB      349             0.0000000000
     41386       349  POPC      C211          -40.0719490205      -40.6064507571       -6.9830195893  MEMB      349             0.0000000000
     41387       349  POPC      H11R          -39.3960839304      -40.1171855997       -7.7166048578  MEMB      349             0.0000000000
     41388       349  POPC      H11S          -39.5573480453      -41.5836711059       -7.1036316750  MEMB      349             0.0000000000
     41389       349  POPC      C212          -39.7636782688      -39.9940014632       -5.5820820635  MEMB      349             0.0000000000
     41390       349  POPC      H12R          -40.3452801143      -40.4690239280       -4.7632934361  MEMB      349             0.0000000000
     41391       349  POPC      H12S          -40.1174581044      -38.9414299381       -5.5466661003  MEMB      349             0.0000000000
     41392       349  POPC      C213          -38.3245556423      -40.1388961883       -5.1628922633  MEMB      349             0.0000000000
     41393       349  POPC      H13R          -37.7264784506      -39.6232500642       -5.9443867575  MEMB      349             0.0000000000
     41394       349  POPC      H13S          -38.2314566361      -41.2459876729       -5.1614752978  MEMB      349             0.0000000000
     41395       349  POPC      C214          -38.1200641876      -39.5762240297       -3.7095457055  MEMB      349             0.0000000000
     41396       349  POPC      H14R          -38.3188191305      -38.4864898261       -3.7949682780  MEMB      349             0.0000000000
     41397       349  POPC      H14S          -37.0335315153      -39.6617599974       -3.4940194130  MEMB      349             0.0000000000
     41398       349  POPC      C215          -38.8325936198      -40.3094704423       -2.6026501378  MEMB      349             0.0000000000
     41399       349  POPC      H15R          -38.6345783811      -41.3782613480       -2.8324265760  MEMB      349             0.0000000000
     41400       349  POPC      H15S          -39.9280581832      -40.1248480659       -2.5887554706  MEMB      349             0.0000000000
     41401       349  POPC      C216          -38.3059196855      -40.1240716103       -1.1442639948  MEMB      349             0.0000000000
     41402       349  POPC      H16R          -37.2174019478      -40.1050531253       -0.9227050292  MEMB      349             0.0000000000
     41403       349  POPC      H16S          -38.5753222381      -41.0399467218       -0.5760071342  MEMB      349             0.0000000000
     41404       349  POPC      C217          -38.8614139123      -38.8385948598       -0.4195060169  MEMB      349             0.0000000000
     41405       349  POPC      H17R          -38.8945990560      -37.9930292283       -1.1393933547  MEMB      349             0.0000000000
     41406       349  POPC      H17S          -38.2297947734      -38.4097706836        0.3876429494  MEMB      349             0.0000000000
     41407       349  POPC      C218          -40.2750726399      -39.0680371371        0.0406582113  MEMB      349             0.0000000000
     41408       349  POPC      H18R          -40.2370239490      -39.6897814645        0.9606079981  MEMB      349             0.0000000000
     41409       349  POPC      H18S          -41.0021994115      -39.3382582895       -0.7546953152  MEMB      349             0.0000000000
     41410       349  POPC      H18T          -40.7199639812      -38.1153133923        0.3994205086  MEMB      349             0.0000000000
     41411       349  POPC      C33           -45.1891248871      -37.7318599794      -12.5089492690  MEMB      349             0.0000000000
     41412       349  POPC      H3X           -46.1506065014      -37.5698139407      -13.0415046428  MEMB      349             0.0000000000
     41413       349  POPC      H3Y           -44.9494515147      -36.6563397034      -12.3670547908  MEMB      349             0.0000000000
     41414       349  POPC      C34           -45.4759051753      -38.4754015724      -11.2136049438  MEMB      349             0.0000000000
     41415       349  POPC      H4X           -44.7951260459      -38.1335646113      -10.4048970689  MEMB      349             0.0000000000
     41416       349  POPC      H4Y           -45.3985067601      -39.5832076797      -11.2467122128  MEMB      349             0.0000000000
     41417       349  POPC      C35           -46.8882925254      -38.2749854910      -10.6395997335  MEMB      349             0.0000000000
     41418       349  POPC      H5X           -47.6031042143      -38.1781398490      -11.4845765759  MEMB      349             0.0000000000
     41419       349  POPC      H5Y           -46.9960774435      -37.3095784553      -10.1004404034  MEMB      349             0.0000000000
     41420       349  POPC      C36           -47.5370806247      -39.3724127513       -9.7134913853  MEMB      349             0.0000000000
     41421       349  POPC      H6X           -47.4834475030      -40.3569969340      -10.2253886431  MEMB      349             0.0000000000
     41422       349  POPC      H6Y           -48.5850708533      -39.1252054031       -9.4397654306  MEMB      349             0.0000000000
     41423       349  POPC      C37           -46.7196059476      -39.6810932098       -8.4405542734  MEMB      349             0.0000000000
     41424       349  POPC      H7X           -45.7460421486      -40.0137461968       -8.8598832795  MEMB      349             0.0000000000
     41425       349  POPC      H7Y           -47.0975440077      -40.4610343476       -7.7454462193  MEMB      349             0.0000000000
     41426       349  POPC      C38           -46.1812246962      -38.3833582175       -7.6917080121  MEMB      349             0.0000000000
     41427       349  POPC      H8X           -47.0677336495      -37.7593361023       -7.4487685887  MEMB      349             0.0000000000
     41428       349  POPC      H8Y           -45.3902243844      -37.9311259730       -8.3274167865  MEMB      349             0.0000000000
     41429       349  POPC      C39           -45.4800339484      -38.7781199894       -6.3309311338  MEMB      349             0.0000000000
     41430       349  POPC      H9X           -45.3011180636      -37.8797695057       -5.7022208564  MEMB      349             0.0000000000
     41431       349  POPC      H9Y           -44.5049992039      -39.2724850796       -6.5289999122  MEMB      349             0.0000000000
     41432       349  POPC      C310          -46.2899613175      -39.8400703130       -5.5358009765  MEMB      349             0.0000000000
     41433       349  POPC      H10X          -46.1844456873      -40.8095912864       -6.0679818907  MEMB      349             0.0000000000
     41434       349  POPC      H10Y          -47.3745512289      -39.6268516278       -5.4238920556  MEMB      349             0.0000000000
     41435       349  POPC      C311          -45.8288354746      -40.0228997043       -4.0550747025  MEMB      349             0.0000000000
     41436       349  POPC      H11X          -46.5429855199      -40.7399516579       -3.5966567087  MEMB      349             0.0000000000
     41437       349  POPC      H11Y          -45.9360524619      -39.1074380862       -3.4347872911  MEMB      349             0.0000000000
     41438       349  POPC      C312          -44.4616889458      -40.7265625153       -3.8838577607  MEMB      349             0.0000000000
     41439       349  POPC      H12X          -43.6304413452      -40.1447452488       -4.3364471304  MEMB      349             0.0000000000
     41440       349  POPC      H12Y          -44.4050601802      -41.7333977357       -4.3501164770  MEMB      349             0.0000000000
     41441       349  POPC      C313          -44.1516972578      -40.9115597892       -2.3604574251  MEMB      349             0.0000000000
     41442       349  POPC      H13X          -45.1812712271      -41.0287930371       -1.9597643560  MEMB      349             0.0000000000
     41443       349  POPC      H13Y          -43.6881656692      -39.9480120942       -2.0587380088  MEMB      349             0.0000000000
     41444       349  POPC      C314          -43.2188579715      -42.1252920188       -2.1644022331  MEMB      349             0.0000000000
     41445       349  POPC      H14X          -42.6661967599      -41.9189012546       -1.2229739351  MEMB      349             0.0000000000
     41446       349  POPC      H14Y          -42.4607976144      -42.1451205449       -2.9763589815  MEMB      349             0.0000000000
     41447       349  POPC      C315          -43.9449680025      -43.4783804120       -1.9820459374  MEMB      349             0.0000000000
     41448       349  POPC      H15X          -44.6891627644      -43.6095158529       -2.7964768497  MEMB      349             0.0000000000
     41449       349  POPC      H15Y          -44.5401540708      -43.4111739112       -1.0463321927  MEMB      349             0.0000000000
     41450       349  POPC      C316          -43.1117597056      -44.8161259647       -1.7666589143  MEMB      349             0.0000000000
     41451       349  POPC      H16X          -42.7197253013      -44.8980765085       -0.7303606266  MEMB      349             0.0000000000
     41452       349  POPC      H16Y          -42.3109914419      -44.9500556805       -2.5250475570  MEMB      349             0.0000000000
     41453       349  POPC      H16Z          -43.7435721796      -45.6898552485       -2.0344842910  MEMB      349             0.0000000000
     41454       350  POPE      N              50.3048039705       39.0011845261      -18.4252982821  MEMB      350             0.0000000000
     41455       350  POPE      HN1            49.9654006147       39.8506710686      -17.9305476689  MEMB      350             0.0000000000
     41456       350  POPE      HN2            49.4796400224       38.5710902554      -18.8897585078  MEMB      350             0.0000000000
     41457       350  POPE      HN3            50.8511427529       38.4124650939      -17.7645991803  MEMB      350             0.0000000000
     41458       350  POPE      C12            51.2779105056       39.4155976934      -19.4747599944  MEMB      350             0.0000000000
     41459       350  POPE      H12A           50.9617152112       38.9020126849      -20.4078044905  MEMB      350             0.0000000000
     41460       350  POPE      H12B           52.2916966168       39.1491754762      -19.1065509946  MEMB      350             0.0000000000
     41461       350  POPE      C11            50.9728234493       40.8567323749      -19.9636114466  MEMB      350             0.0000000000
     41462       350  POPE      H11A           49.8940652522       40.8974177931      -20.2261876213  MEMB      350             0.0000000000
     41463       350  POPE      H11B           51.5884394223       40.8931102699      -20.8877406187  MEMB      350             0.0000000000
     41464       350  POPE      P              52.8220680207       42.3810248024      -18.9066085746  MEMB      350             0.0000000000
     41465       350  POPE      O13            53.1281430146       43.3867465641      -19.9614235126  MEMB      350             0.0000000000
     41466       350  POPE      O14            53.7594419046       41.3016756831      -18.7275633011  MEMB      350             0.0000000000
     41467       350  POPE      O11            52.6781815850       43.0954176405      -17.4897142170  MEMB      350             0.0000000000
     41468       350  POPE      O12            51.4131139539       41.8418559139      -19.0510206755  MEMB      350             0.0000000000
     41469       350  POPE      C1             51.7833035694       42.4895426757      -16.5065519150  MEMB      350             0.0000000000
     41470       350  POPE      HA             51.7372987279       41.3805156863      -16.5541300117  MEMB      350             0.0000000000
     41471       350  POPE      HB             50.7903390935       42.9876816704      -16.5206968412  MEMB      350             0.0000000000
     41472       350  POPE      C2             52.3397975488       42.7624461266      -15.0309544997  MEMB      350             0.0000000000
     41473       350  POPE      HS             52.2723515385       43.8486861241      -14.8076732444  MEMB      350             0.0000000000
     41474       350  POPE      O21            53.7206680331       42.3953214281      -14.9838708925  MEMB      350             0.0000000000
     41475       350  POPE      C21            54.4865606532       42.7178985324      -13.9418328256  MEMB      350             0.0000000000
     41476       350  POPE      O22            54.1170168879       43.5061139865      -13.0395193174  MEMB      350             0.0000000000
     41477       350  POPE      C22            55.8138499613       41.9479632060      -13.9450948730  MEMB      350             0.0000000000
     41478       350  POPE      H2R            56.4869132189       42.1659887741      -14.8016995962  MEMB      350             0.0000000000
     41479       350  POPE      H2S            55.6067763532       40.8800918712      -14.1711307314  MEMB      350             0.0000000000
     41480       350  POPE      C3             51.4873035910       41.8915487143      -14.0432246861  MEMB      350             0.0000000000
     41481       350  POPE      HX             50.4714211327       42.1392673091      -14.4186432883  MEMB      350             0.0000000000
     41482       350  POPE      HY             51.6983552213       42.1944242854      -12.9953483304  MEMB      350             0.0000000000
     41483       350  POPE      O31            51.5322519749       40.5307807976      -14.2789445166  MEMB      350             0.0000000000
     41484       350  POPE      C31            51.0238622649       39.7638295971      -13.3325768716  MEMB      350             0.0000000000
     41485       350  POPE      O32            50.3030832263       40.1213936236      -12.4309123519  MEMB      350             0.0000000000
     41486       350  POPE      C32            51.3704769104       38.2716292982      -13.5913506138  MEMB      350             0.0000000000
     41487       350  POPE      H2X            51.1563062393       38.1866019554      -14.6781912755  MEMB      350             0.0000000000
     41488       350  POPE      H2Y            50.6845169132       37.5925801305      -13.0411943468  MEMB      350             0.0000000000
     41489       350  POPE      C23            56.6869646219       42.2090379761      -12.5970549628  MEMB      350             0.0000000000
     41490       350  POPE      H3R            56.8350872478       43.3074874073      -12.5209657865  MEMB      350             0.0000000000
     41491       350  POPE      H3S            57.6930717025       41.7790059123      -12.7897774899  MEMB      350             0.0000000000
     41492       350  POPE      C24            55.9922225527       41.4095174028      -11.4543845671  MEMB      350             0.0000000000
     41493       350  POPE      H4R            56.0803111181       40.3232077687      -11.6700063613  MEMB      350             0.0000000000
     41494       350  POPE      H4S            54.9524016654       41.7934548675      -11.3789800672  MEMB      350             0.0000000000
     41495       350  POPE      C25            56.5481040230       41.6644794582       -9.9889072558  MEMB      350             0.0000000000
     41496       350  POPE      H5R            56.0184196594       42.5352061833       -9.5466509099  MEMB      350             0.0000000000
     41497       350  POPE      H5S            57.6036947341       41.9286829136      -10.2130621951  MEMB      350             0.0000000000
     41498       350  POPE      C26            56.4385696881       40.4167526171       -9.0615112457  MEMB      350             0.0000000000
     41499       350  POPE      H6R            55.4707093081       39.9791324071       -9.3871741324  MEMB      350             0.0000000000
     41500       350  POPE      H6S            56.3591670910       40.7537544812       -8.0058380849  MEMB      350             0.0000000000
     41501       350  POPE      C27            57.6258552431       39.5366013750       -9.2136361553  MEMB      350             0.0000000000
     41502       350  POPE      H7R            58.5163563114       40.0940513889       -8.8522805664  MEMB      350             0.0000000000
     41503       350  POPE      H7S            57.7351122312       39.2858864271      -10.2904494473  MEMB      350             0.0000000000
     41504       350  POPE      C28            57.5873934012       38.2010807965       -8.3816549215  MEMB      350             0.0000000000
     41505       350  POPE      H8R            58.3303368018       37.4595899990       -8.7457253064  MEMB      350             0.0000000000
     41506       350  POPE      H8S            56.5575521426       37.7927646939       -8.4654779781  MEMB      350             0.0000000000
     41507       350  POPE      C29            57.9169275550       38.2527382361       -6.8805988958  MEMB      350             0.0000000000
     41508       350  POPE      H91            58.9676554910       38.0524406961       -6.6239833609  MEMB      350             0.0000000000
     41509       350  POPE      C210           57.1087274554       38.4513567911       -5.8105985312  MEMB      350             0.0000000000
     41510       350  POPE      H101           57.5628653117       38.3758108454       -4.8115729909  MEMB      350             0.0000000000
     41511       350  POPE      C211           55.5984324494       38.6755853816       -5.7621163306  MEMB      350             0.0000000000
     41512       350  POPE      H11R           55.1679129099       39.3402401121       -6.5413521539  MEMB      350             0.0000000000
     41513       350  POPE      H11S           55.3195018496       39.2791556800       -4.8720484789  MEMB      350             0.0000000000
     41514       350  POPE      C212           54.7262922552       37.3919231509       -5.6569902668  MEMB      350             0.0000000000
     41515       350  POPE      H12R           55.2014296477       36.5521396811       -6.2077440361  MEMB      350             0.0000000000
     41516       350  POPE      H12S           53.7560260149       37.5045765896       -6.1863426912  MEMB      350             0.0000000000
     41517       350  POPE      C213           54.3709013000       37.0242781415       -4.2314943968  MEMB      350             0.0000000000
     41518       350  POPE      H13R           54.0208823863       37.9125606155       -3.6633736735  MEMB      350             0.0000000000
     41519       350  POPE      H13S           55.3474575181       36.7098649165       -3.8051102455  MEMB      350             0.0000000000
     41520       350  POPE      C214           53.4695679507       35.7762181578       -3.9322775018  MEMB      350             0.0000000000
     41521       350  POPE      H14R           53.7663776444       34.9402683441       -4.6011673489  MEMB      350             0.0000000000
     41522       350  POPE      H14S           52.3871597253       35.9365117904       -4.1246825930  MEMB      350             0.0000000000
     41523       350  POPE      C215           53.7163605911       35.1602911741       -2.5540559039  MEMB      350             0.0000000000
     41524       350  POPE      H15R           54.8042549712       35.0108335250       -2.3853273773  MEMB      350             0.0000000000
     41525       350  POPE      H15S           53.2765624299       34.1438366204       -2.4662009655  MEMB      350             0.0000000000
     41526       350  POPE      C216           53.1206689415       36.0415186929       -1.4258283535  MEMB      350             0.0000000000
     41527       350  POPE      H16R           53.5755520343       37.0537977539       -1.3739294965  MEMB      350             0.0000000000
     41528       350  POPE      H16S           53.3759310973       35.4761166745       -0.5041537505  MEMB      350             0.0000000000
     41529       350  POPE      C217           51.5658693611       36.0861214838       -1.3234807915  MEMB      350             0.0000000000
     41530       350  POPE      H17R           51.1314031904       35.0684247363       -1.2242149515  MEMB      350             0.0000000000
     41531       350  POPE      H17S           51.0552916439       36.5069749933       -2.2159562835  MEMB      350             0.0000000000
     41532       350  POPE      C218           51.0354796390       36.9011043841       -0.1540190020  MEMB      350             0.0000000000
     41533       350  POPE      H18R           51.2105344985       36.3480388465        0.7935003551  MEMB      350             0.0000000000
     41534       350  POPE      H18S           49.9441357635       37.0691703311       -0.2766696280  MEMB      350             0.0000000000
     41535       350  POPE      H18T           51.6212225678       37.8447012268       -0.1832051495  MEMB      350             0.0000000000
     41536       350  POPE      C33            52.9104111047       38.0003019094      -13.3944500427  MEMB      350             0.0000000000
     41537       350  POPE      H3X            53.4717199827       38.4506829229      -14.2408601464  MEMB      350             0.0000000000
     41538       350  POPE      H3Y            53.0501910687       36.9001428061      -13.4610267232  MEMB      350             0.0000000000
     41539       350  POPE      C34            53.7059443705       38.4724772561      -12.1627378873  MEMB      350             0.0000000000
     41540       350  POPE      H4X            53.4818907500       39.5444810772      -11.9758456077  MEMB      350             0.0000000000
     41541       350  POPE      H4Y            54.7638457813       38.1946880124      -12.3576708371  MEMB      350             0.0000000000
     41542       350  POPE      C35            53.4398165307       37.6468985944      -10.9518885141  MEMB      350             0.0000000000
     41543       350  POPE      H5X            54.3603777168       37.7823849765      -10.3448210569  MEMB      350             0.0000000000
     41544       350  POPE      H5Y            53.3933842981       36.5589559670      -11.1722203873  MEMB      350             0.0000000000
     41545       350  POPE      C36            52.2375958420       38.1661434257      -10.1453128493  MEMB      350             0.0000000000
     41546       350  POPE      H6X            51.3090907288       38.1707686182      -10.7553766787  MEMB      350             0.0000000000
     41547       350  POPE      H6Y            52.2968368812       39.2601597184       -9.9610851249  MEMB      350             0.0000000000
     41548       350  POPE      C37            51.9829692274       37.5709754051       -8.7356096686  MEMB      350             0.0000000000
     41549       350  POPE      H7X            52.9728406014       37.7937288873       -8.2829982264  MEMB      350             0.0000000000
     41550       350  POPE      H7Y            51.9202201818       36.4695084083       -8.8665835234  MEMB      350             0.0000000000
     41551       350  POPE      C38            50.8506240378       38.1564313062       -7.8992490866  MEMB      350             0.0000000000
     41552       350  POPE      H8X            50.1623771235       37.3349743587       -7.6062540931  MEMB      350             0.0000000000
     41553       350  POPE      H8Y            50.1840551340       38.7312837615       -8.5771505673  MEMB      350             0.0000000000
     41554       350  POPE      C39            51.3070959793       38.9936825258       -6.6750180004  MEMB      350             0.0000000000
     41555       350  POPE      H9X            51.9451254764       38.4585669519       -5.9395658543  MEMB      350             0.0000000000
     41556       350  POPE      H9Y            50.3742124018       39.2570177587       -6.1321518433  MEMB      350             0.0000000000
     41557       350  POPE      C310           51.9730489940       40.2814645864       -7.0874202798  MEMB      350             0.0000000000
     41558       350  POPE      H10X           51.3219307700       40.7567708287       -7.8519136895  MEMB      350             0.0000000000
     41559       350  POPE      H10Y           53.0110188810       40.1959047635       -7.4742267989  MEMB      350             0.0000000000
     41560       350  POPE      C311           52.0304591817       41.3873805151       -6.0238901921  MEMB      350             0.0000000000
     41561       350  POPE      H11X           51.0126632283       41.5526242275       -5.6102395578  MEMB      350             0.0000000000
     41562       350  POPE      H11Y           52.3263872855       42.3501472516       -6.4927486371  MEMB      350             0.0000000000
     41563       350  POPE      C312           53.0312934723       41.1287076720       -4.9016029185  MEMB      350             0.0000000000
     41564       350  POPE      H12X           54.1013269917       40.9846254442       -5.1634985870  MEMB      350             0.0000000000
     41565       350  POPE      H12Y           52.9347784327       40.1224589143       -4.4406590684  MEMB      350             0.0000000000
     41566       350  POPE      C313           53.1353014895       42.1530662483       -3.7535739083  MEMB      350             0.0000000000
     41567       350  POPE      H13X           53.6806084218       41.7012954606       -2.8975000084  MEMB      350             0.0000000000
     41568       350  POPE      H13Y           52.0727193799       42.2235972283       -3.4369264240  MEMB      350             0.0000000000
     41569       350  POPE      C314           53.6068533588       43.5592269599       -4.2459503605  MEMB      350             0.0000000000
     41570       350  POPE      H14X           52.7640847909       43.9725966410       -4.8402470438  MEMB      350             0.0000000000
     41571       350  POPE      H14Y           54.5949784673       43.4200535642       -4.7343772221  MEMB      350             0.0000000000
     41572       350  POPE      C315           53.8239698797       44.5202174589       -3.0491131286  MEMB      350             0.0000000000
     41573       350  POPE      H15X           52.9802166500       44.4275813542       -2.3322999183  MEMB      350             0.0000000000
     41574       350  POPE      H15Y           53.6787861528       45.5567643365       -3.4216903835  MEMB      350             0.0000000000
     41575       350  POPE      C316           55.0715072826       44.4303667815       -2.0749569247  MEMB      350             0.0000000000
     41576       350  POPE      H16X           56.0127647604       44.6088893468       -2.6375265167  MEMB      350             0.0000000000
     41577       350  POPE      H16Y           55.1587378122       43.4291559031       -1.6013670501  MEMB      350             0.0000000000
     41578       350  POPE      H16Z           54.9529891891       45.2163208208       -1.2987157453  MEMB      350             0.0000000000
     41579       351  POPE      N              38.4563064266      -52.3948931177      -21.1878060183  MEMB      351             0.0000000000
     41580       351  POPE      HN1            38.3465498677      -52.7990342881      -20.2358482705  MEMB      351             0.0000000000
     41581       351  POPE      HN2            38.1387538706      -52.9548631387      -22.0046254209  MEMB      351             0.0000000000
     41582       351  POPE      HN3            39.4830703893      -52.2583695321      -21.2811706171  MEMB      351             0.0000000000
     41583       351  POPE      C12            37.8457869075      -50.9657411267      -21.1806637254  MEMB      351             0.0000000000
     41584       351  POPE      H12A           36.7967544246      -51.0519724191      -21.5362142086  MEMB      351             0.0000000000
     41585       351  POPE      H12B           38.3391209103      -50.3399331342      -21.9548128950  MEMB      351             0.0000000000
     41586       351  POPE      C11            37.8309403530      -50.4636305405      -19.7762833970  MEMB      351             0.0000000000
     41587       351  POPE      H11A           37.2493677466      -51.0939293400      -19.0700130607  MEMB      351             0.0000000000
     41588       351  POPE      H11B           37.3551991835      -49.4606428333      -19.8210818771  MEMB      351             0.0000000000
     41589       351  POPE      P              39.6855839250      -50.8494004671      -17.9777881476  MEMB      351             0.0000000000
     41590       351  POPE      O13            41.1177384026      -50.5287917599      -17.6858713944  MEMB      351             0.0000000000
     41591       351  POPE      O14            39.3548237813      -52.3041229870      -18.0069941822  MEMB      351             0.0000000000
     41592       351  POPE      O11            38.6419546841      -50.2144006742      -16.8771811571  MEMB      351             0.0000000000
     41593       351  POPE      O12            39.2038207040      -50.1686484247      -19.3074119764  MEMB      351             0.0000000000
     41594       351  POPE      C1             38.7025681850      -48.7418874063      -16.8165491745  MEMB      351             0.0000000000
     41595       351  POPE      HA             38.5645475643      -48.3315620031      -17.8397326365  MEMB      351             0.0000000000
     41596       351  POPE      HB             39.6783539843      -48.4524142973      -16.3711636566  MEMB      351             0.0000000000
     41597       351  POPE      C2             37.5032881184      -48.2712989846      -15.8855466051  MEMB      351             0.0000000000
     41598       351  POPE      HS             37.4921255957      -47.1647201111      -15.7871610013  MEMB      351             0.0000000000
     41599       351  POPE      O21            37.5409873483      -48.9650891964      -14.6363218447  MEMB      351             0.0000000000
     41600       351  POPE      C21            38.5332313737      -48.7513896359      -13.7810719182  MEMB      351             0.0000000000
     41601       351  POPE      O22            39.3189094312      -47.8223402292      -13.7909824051  MEMB      351             0.0000000000
     41602       351  POPE      C22            38.4878688069      -49.9412592761      -12.8376375017  MEMB      351             0.0000000000
     41603       351  POPE      H2R            37.8731213018      -50.7791082580      -13.2305952459  MEMB      351             0.0000000000
     41604       351  POPE      H2S            38.0800936892      -49.6385189740      -11.8495139143  MEMB      351             0.0000000000
     41605       351  POPE      C3             36.1995339762      -48.6474145726      -16.5785310586  MEMB      351             0.0000000000
     41606       351  POPE      HX             36.2856428339      -49.7511798086      -16.6713122363  MEMB      351             0.0000000000
     41607       351  POPE      HY             36.0536858519      -48.1513872456      -17.5618958658  MEMB      351             0.0000000000
     41608       351  POPE      O31            35.0484556292      -48.4179176489      -15.8334620865  MEMB      351             0.0000000000
     41609       351  POPE      C31            34.3818917790      -49.4996022601      -15.2708011971  MEMB      351             0.0000000000
     41610       351  POPE      O32            34.6525838152      -50.6876372017      -15.4601520206  MEMB      351             0.0000000000
     41611       351  POPE      C32            33.1286681595      -49.0481549951      -14.3190291969  MEMB      351             0.0000000000
     41612       351  POPE      H2X            32.4447446646      -49.8935780450      -14.0913683872  MEMB      351             0.0000000000
     41613       351  POPE      H2Y            32.5822800938      -48.2726662172      -14.8973007033  MEMB      351             0.0000000000
     41614       351  POPE      C23            39.9766141592      -50.3681758046      -12.5646049060  MEMB      351             0.0000000000
     41615       351  POPE      H3R            40.5753120252      -49.4508633512      -12.3790795001  MEMB      351             0.0000000000
     41616       351  POPE      H3S            40.4861569620      -50.5660319930      -13.5318380750  MEMB      351             0.0000000000
     41617       351  POPE      C24            40.1882976832      -51.5089893357      -11.5510936922  MEMB      351             0.0000000000
     41618       351  POPE      H4R            39.5433926028      -51.4451188951      -10.6486862772  MEMB      351             0.0000000000
     41619       351  POPE      H4S            41.2364058217      -51.5940686362      -11.1925523455  MEMB      351             0.0000000000
     41620       351  POPE      C25            39.9219898193      -52.8650296051      -12.1918624954  MEMB      351             0.0000000000
     41621       351  POPE      H5R            40.7656468287      -53.5877708136      -12.1774060884  MEMB      351             0.0000000000
     41622       351  POPE      H5S            39.5906488503      -52.6703536183      -13.2342808679  MEMB      351             0.0000000000
     41623       351  POPE      C26            38.7536875968      -53.4978651706      -11.4535706093  MEMB      351             0.0000000000
     41624       351  POPE      H6R            37.9401385305      -52.8420137893      -11.0763201745  MEMB      351             0.0000000000
     41625       351  POPE      H6S            39.0271319387      -54.0129780860      -10.5079445124  MEMB      351             0.0000000000
     41626       351  POPE      C27            38.1294999091      -54.7987457619      -12.1343756635  MEMB      351             0.0000000000
     41627       351  POPE      H7R            38.7744298447      -55.6802789108      -11.9311858051  MEMB      351             0.0000000000
     41628       351  POPE      H7S            38.1348282062      -54.5941864054      -13.2263683765  MEMB      351             0.0000000000
     41629       351  POPE      C28            36.6980382731      -55.0907934490      -11.5510862490  MEMB      351             0.0000000000
     41630       351  POPE      H8R            36.8360355541      -55.2587649605      -10.4615617741  MEMB      351             0.0000000000
     41631       351  POPE      H8S            36.3607693038      -56.0083696177      -12.0789348242  MEMB      351             0.0000000000
     41632       351  POPE      C29            35.7607715408      -53.9406921628      -11.8043019813  MEMB      351             0.0000000000
     41633       351  POPE      H91            35.5944265523      -53.6124429659      -12.8409223334  MEMB      351             0.0000000000
     41634       351  POPE      C210           35.1066927734      -53.2425255163      -10.8646157083  MEMB      351             0.0000000000
     41635       351  POPE      H101           34.4173006515      -52.4370101255      -11.1576746044  MEMB      351             0.0000000000
     41636       351  POPE      C211           35.1121182745      -53.4515423079       -9.3666337696  MEMB      351             0.0000000000
     41637       351  POPE      H11R           35.4699267822      -52.5506821542       -8.8237295330  MEMB      351             0.0000000000
     41638       351  POPE      H11S           35.6417899062      -54.3819975624       -9.0699492473  MEMB      351             0.0000000000
     41639       351  POPE      C212           33.6468836217      -53.7654549387       -8.9496898739  MEMB      351             0.0000000000
     41640       351  POPE      H12R           33.4019575915      -54.7893267020       -9.3046814962  MEMB      351             0.0000000000
     41641       351  POPE      H12S           32.9039086529      -53.0809783150       -9.4120759235  MEMB      351             0.0000000000
     41642       351  POPE      C213           33.4890525133      -53.9679845974       -7.4323991227  MEMB      351             0.0000000000
     41643       351  POPE      H13R           34.4840706597      -54.1009380651       -6.9563912371  MEMB      351             0.0000000000
     41644       351  POPE      H13S           32.9875625536      -54.9308337936       -7.1962830161  MEMB      351             0.0000000000
     41645       351  POPE      C214           32.6046299088      -52.9027428866       -6.7095716100  MEMB      351             0.0000000000
     41646       351  POPE      H14R           31.5540377499      -53.2338531070       -6.5648529274  MEMB      351             0.0000000000
     41647       351  POPE      H14S           32.5486391928      -52.0289408796       -7.3934255039  MEMB      351             0.0000000000
     41648       351  POPE      C215           33.2570397972      -52.2692463037       -5.4784268513  MEMB      351             0.0000000000
     41649       351  POPE      H15R           32.5897716180      -51.4513867440       -5.1317576103  MEMB      351             0.0000000000
     41650       351  POPE      H15S           34.2471085484      -51.8172485821       -5.7015478058  MEMB      351             0.0000000000
     41651       351  POPE      C216           33.5286482360      -53.2327019338       -4.2996791201  MEMB      351             0.0000000000
     41652       351  POPE      H16R           34.0948589274      -54.1063658226       -4.6875421776  MEMB      351             0.0000000000
     41653       351  POPE      H16S           32.6079673896      -53.6074529106       -3.8034642401  MEMB      351             0.0000000000
     41654       351  POPE      C217           34.3871626958      -52.7358141732       -3.0763001663  MEMB      351             0.0000000000
     41655       351  POPE      H17R           35.3976480594      -52.5787228343       -3.5105374580  MEMB      351             0.0000000000
     41656       351  POPE      H17S           34.4397585567      -53.4833104128       -2.2560527257  MEMB      351             0.0000000000
     41657       351  POPE      C218           33.8698617392      -51.4009658266       -2.4339624227  MEMB      351             0.0000000000
     41658       351  POPE      H18R           34.6399947078      -50.9475294651       -1.7739535975  MEMB      351             0.0000000000
     41659       351  POPE      H18S           32.9438340794      -51.6822434456       -1.8883638914  MEMB      351             0.0000000000
     41660       351  POPE      H18T           33.5512971541      -50.6314614576       -3.1692853061  MEMB      351             0.0000000000
     41661       351  POPE      C33            33.7454798618      -48.4319564880      -13.0193588739  MEMB      351             0.0000000000
     41662       351  POPE      H3X            32.9312077960      -47.8313624070      -12.5604804515  MEMB      351             0.0000000000
     41663       351  POPE      H3Y            34.5944138124      -47.7785503245      -13.3137949052  MEMB      351             0.0000000000
     41664       351  POPE      C34            34.2459889498      -49.5652352917      -12.0966085501  MEMB      351             0.0000000000
     41665       351  POPE      H4X            35.2119884825      -49.8955242379      -12.5348723812  MEMB      351             0.0000000000
     41666       351  POPE      H4Y            33.5024110193      -50.3719538712      -11.9216283578  MEMB      351             0.0000000000
     41667       351  POPE      C35            34.6326865771      -49.2595968718      -10.6831186837  MEMB      351             0.0000000000
     41668       351  POPE      H5X            35.0915522311      -50.1765137473      -10.2553025359  MEMB      351             0.0000000000
     41669       351  POPE      H5Y            33.7709832886      -48.9282368546      -10.0650667711  MEMB      351             0.0000000000
     41670       351  POPE      C36            35.5328132571      -48.0190382592      -10.5308269647  MEMB      351             0.0000000000
     41671       351  POPE      H6X            34.8817778210      -47.2295068824      -10.9633932159  MEMB      351             0.0000000000
     41672       351  POPE      H6Y            36.4422359663      -48.3496466683      -11.0766924842  MEMB      351             0.0000000000
     41673       351  POPE      C37            35.8588499913      -47.6457898167       -9.0892610685  MEMB      351             0.0000000000
     41674       351  POPE      H7X            36.7248906041      -46.9574473239       -8.9868922130  MEMB      351             0.0000000000
     41675       351  POPE      H7Y            36.2069664450      -48.6112721003       -8.6638441156  MEMB      351             0.0000000000
     41676       351  POPE      C38            34.6759317719      -47.2232270809       -8.3160680589  MEMB      351             0.0000000000
     41677       351  POPE      H8X            33.9606423447      -48.0534229699       -8.1331561962  MEMB      351             0.0000000000
     41678       351  POPE      H8Y            34.1418136283      -46.3683714308       -8.7832517235  MEMB      351             0.0000000000
     41679       351  POPE      C39            34.9906317317      -46.7921392741       -6.8776616694  MEMB      351             0.0000000000
     41680       351  POPE      H9X            34.2134590135      -46.1988601803       -6.3500786887  MEMB      351             0.0000000000
     41681       351  POPE      H9Y            35.7810421073      -46.0115191594       -6.8919615761  MEMB      351             0.0000000000
     41682       351  POPE      C310           35.3638882968      -47.8452496456       -5.8555344961  MEMB      351             0.0000000000
     41683       351  POPE      H10X           36.1913381706      -48.5054564023       -6.1928405136  MEMB      351             0.0000000000
     41684       351  POPE      H10Y           34.4534402031      -48.4604186657       -5.6913013356  MEMB      351             0.0000000000
     41685       351  POPE      C311           35.7524037257      -47.2086088191       -4.5114342981  MEMB      351             0.0000000000
     41686       351  POPE      H11X           34.9480650378      -46.6176223582       -4.0234842376  MEMB      351             0.0000000000
     41687       351  POPE      H11Y           36.6041473658      -46.5441509257       -4.7709508697  MEMB      351             0.0000000000
     41688       351  POPE      C312           36.1528634151      -48.3836231511       -3.5599198831  MEMB      351             0.0000000000
     41689       351  POPE      H12X           36.2843533628      -49.3200095638       -4.1431968891  MEMB      351             0.0000000000
     41690       351  POPE      H12Y           35.2698058321      -48.6753978472       -2.9521378186  MEMB      351             0.0000000000
     41691       351  POPE      C313           37.2863100255      -48.1072454044       -2.5684768665  MEMB      351             0.0000000000
     41692       351  POPE      H13X           36.9183498683      -47.3226620013       -1.8732387691  MEMB      351             0.0000000000
     41693       351  POPE      H13Y           38.1115688111      -47.7034688504       -3.1931638167  MEMB      351             0.0000000000
     41694       351  POPE      C314           37.8066918880      -49.3318691060       -1.8110964609  MEMB      351             0.0000000000
     41695       351  POPE      H14X           38.0534914833      -50.1819944402       -2.4824368013  MEMB      351             0.0000000000
     41696       351  POPE      H14Y           36.8938670172      -49.6581207318       -1.2682959314  MEMB      351             0.0000000000
     41697       351  POPE      C315           38.9396893278      -49.1070165721       -0.8497197758  MEMB      351             0.0000000000
     41698       351  POPE      H15X           38.7186658945      -48.2315356799       -0.2024153332  MEMB      351             0.0000000000
     41699       351  POPE      H15Y           39.8435084356      -48.7858377024       -1.4103242358  MEMB      351             0.0000000000
     41700       351  POPE      C316           39.3242657585      -50.2859336445       -0.0343905540  MEMB      351             0.0000000000
     41701       351  POPE      H16X           39.4524138526      -51.2842197064       -0.5048404691  MEMB      351             0.0000000000
     41702       351  POPE      H16Y           38.4441942861      -50.5693473618        0.5816234395  MEMB      351             0.0000000000
     41703       351  POPE      H16Z           40.1836276176      -50.0524469855        0.6299160137  MEMB      351             0.0000000000
     41704       352  POPC      N              45.1463148704      -44.1368482566      -20.2457334155  MEMB      352             0.0000000000
     41705       352  POPC      C12            44.0730922085      -43.7652181379      -19.1938098563  MEMB      352             0.0000000000
     41706       352  POPC      H12A           43.5690207414      -42.9238449171      -19.6459195430  MEMB      352             0.0000000000
     41707       352  POPC      H12B           44.6854362544      -43.3592175449      -18.4022301866  MEMB      352             0.0000000000
     41708       352  POPC      C13            46.1075323932      -42.9627380298      -20.6612678092  MEMB      352             0.0000000000
     41709       352  POPC      H13A           46.9806815169      -43.2839341713      -21.2097599885  MEMB      352             0.0000000000
     41710       352  POPC      H13B           45.4558305894      -42.2735817090      -21.1777444617  MEMB      352             0.0000000000
     41711       352  POPC      H13C           46.4837049047      -42.4276654868      -19.8018544756  MEMB      352             0.0000000000
     41712       352  POPC      C14            46.0412078676      -45.0479140491      -19.4998952799  MEMB      352             0.0000000000
     41713       352  POPC      H14A           46.4664064021      -44.5401068119      -18.6468195522  MEMB      352             0.0000000000
     41714       352  POPC      H14B           45.4824636628      -45.8054350546      -18.9703985853  MEMB      352             0.0000000000
     41715       352  POPC      H14C           46.7202237206      -45.5349963915      -20.1840650433  MEMB      352             0.0000000000
     41716       352  POPC      C15            44.6001512009      -44.8328334264      -21.4578266238  MEMB      352             0.0000000000
     41717       352  POPC      H15A           43.9922747705      -45.6293791046      -21.0548361138  MEMB      352             0.0000000000
     41718       352  POPC      H15B           45.4501272004      -45.1052105703      -22.0658985094  MEMB      352             0.0000000000
     41719       352  POPC      H15C           43.9777829306      -44.1370615963      -22.0009281404  MEMB      352             0.0000000000
     41720       352  POPC      C11            43.0181282990      -44.7405060731      -18.6409250804  MEMB      352             0.0000000000
     41721       352  POPC      H11A           42.1598713607      -45.0468774271      -19.2764189840  MEMB      352             0.0000000000
     41722       352  POPC      H11B           42.5511593725      -44.2730060638      -17.7477819091  MEMB      352             0.0000000000
     41723       352  POPC      P              43.0304774040      -47.2793172050      -17.8742068305  MEMB      352             0.0000000000
     41724       352  POPC      O13            43.6943653215      -48.1187916511      -16.8047336028  MEMB      352             0.0000000000
     41725       352  POPC      O14            42.8973510026      -47.8159576355      -19.2152669355  MEMB      352             0.0000000000
     41726       352  POPC      O12            43.6771914656      -45.8580439440      -17.9976173911  MEMB      352             0.0000000000
     41727       352  POPC      O11            41.5536231839      -46.9199889267      -17.4087171730  MEMB      352             0.0000000000
     41728       352  POPC      C1             40.4187002257      -47.6394556523      -17.8391408407  MEMB      352             0.0000000000
     41729       352  POPC      HA             40.5958260160      -48.7328250000      -17.7525910377  MEMB      352             0.0000000000
     41730       352  POPC      HB             40.1517526858      -47.3621989330      -18.8813446628  MEMB      352             0.0000000000
     41731       352  POPC      C2             39.1404893934      -47.4354797565      -16.9729501247  MEMB      352             0.0000000000
     41732       352  POPC      HS             38.2499915726      -47.5334623255      -17.6300147028  MEMB      352             0.0000000000
     41733       352  POPC      O21            39.1086484303      -46.0612429815      -16.5274176768  MEMB      352             0.0000000000
     41734       352  POPC      C21            38.8920287022      -45.0945233559      -17.3639615710  MEMB      352             0.0000000000
     41735       352  POPC      O22            38.7294966531      -45.2229089558      -18.5801874051  MEMB      352             0.0000000000
     41736       352  POPC      C22            38.7104507366      -43.8229709683      -16.6081092008  MEMB      352             0.0000000000
     41737       352  POPC      H2R            37.8103272727      -43.8153105626      -15.9569253780  MEMB      352             0.0000000000
     41738       352  POPC      H2S            38.5200607729      -43.1435670404      -17.4662950871  MEMB      352             0.0000000000
     41739       352  POPC      C3             39.1001475740      -48.4521663773      -15.7774400809  MEMB      352             0.0000000000
     41740       352  POPC      HX             38.8839413483      -49.4573225563      -16.1984346745  MEMB      352             0.0000000000
     41741       352  POPC      HY             38.2866328061      -48.2162926610      -15.0584974532  MEMB      352             0.0000000000
     41742       352  POPC      O31            40.2817664734      -48.3537908165      -14.9198121996  MEMB      352             0.0000000000
     41743       352  POPC      C31            41.1534024713      -49.3320769122      -14.9137178464  MEMB      352             0.0000000000
     41744       352  POPC      O32            41.0329277756      -50.4268079998      -15.4534191771  MEMB      352             0.0000000000
     41745       352  POPC      C32            42.3322648105      -48.9723827065      -13.9698833945  MEMB      352             0.0000000000
     41746       352  POPC      H2X            43.2138422405      -48.6662775450      -14.5727446012  MEMB      352             0.0000000000
     41747       352  POPC      H2Y            42.7128540128      -49.9701306025      -13.6633351644  MEMB      352             0.0000000000
     41748       352  POPC      C23            39.9796459585      -43.3170692920      -15.9428574475  MEMB      352             0.0000000000
     41749       352  POPC      H3R            40.0245342203      -42.2460855544      -15.6507960830  MEMB      352             0.0000000000
     41750       352  POPC      H3S            40.6340516571      -43.5890813347      -16.7984761918  MEMB      352             0.0000000000
     41751       352  POPC      C24            40.3782222854      -44.0290275978      -14.5891193256  MEMB      352             0.0000000000
     41752       352  POPC      H4R            40.3621646634      -45.1328134902      -14.7144977640  MEMB      352             0.0000000000
     41753       352  POPC      H4S            39.6379326335      -43.7517027492      -13.8084892468  MEMB      352             0.0000000000
     41754       352  POPC      C25            41.8390431585      -43.7893174505      -14.1033316729  MEMB      352             0.0000000000
     41755       352  POPC      H5R            41.9552306355      -44.4268325648      -13.2008930837  MEMB      352             0.0000000000
     41756       352  POPC      H5S            41.9067200824      -42.7582184823      -13.6951949032  MEMB      352             0.0000000000
     41757       352  POPC      C26            43.0924030905      -44.0861472034      -15.0068944601  MEMB      352             0.0000000000
     41758       352  POPC      H6R            43.1509304207      -43.1783410854      -15.6446902958  MEMB      352             0.0000000000
     41759       352  POPC      H6S            42.9182276453      -44.9761286780      -15.6487020542  MEMB      352             0.0000000000
     41760       352  POPC      C27            44.4244744966      -44.1428185674      -14.1961684025  MEMB      352             0.0000000000
     41761       352  POPC      H7R            44.5904577285      -43.3079683165      -13.4821681589  MEMB      352             0.0000000000
     41762       352  POPC      H7S            45.3183905998      -44.1041083734      -14.8547551499  MEMB      352             0.0000000000
     41763       352  POPC      C28            44.5460086770      -45.3757087601      -13.2548838744  MEMB      352             0.0000000000
     41764       352  POPC      H8R            44.5088537833      -46.2910012040      -13.8835170664  MEMB      352             0.0000000000
     41765       352  POPC      H8S            43.7125130246      -45.3653341626      -12.5203779953  MEMB      352             0.0000000000
     41766       352  POPC      C29            45.9273249511      -45.3301601957      -12.5103006179  MEMB      352             0.0000000000
     41767       352  POPC      H91            46.8076834812      -45.1686448904      -13.1497392066  MEMB      352             0.0000000000
     41768       352  POPC      C210           46.1466055727      -45.4067949201      -11.1582351808  MEMB      352             0.0000000000
     41769       352  POPC      H101           47.2049663211      -45.2718881972      -10.8905177758  MEMB      352             0.0000000000
     41770       352  POPC      C211           45.0814214706      -45.6195044678      -10.0189797972  MEMB      352             0.0000000000
     41771       352  POPC      H11R           45.0288965513      -46.6725374712       -9.6687176485  MEMB      352             0.0000000000
     41772       352  POPC      H11S           44.0831756073      -45.4485176848      -10.4756969255  MEMB      352             0.0000000000
     41773       352  POPC      C212           45.2311409269      -44.6474216238       -8.7903942961  MEMB      352             0.0000000000
     41774       352  POPC      H12R           45.3103743421      -43.6185040944       -9.2019422472  MEMB      352             0.0000000000
     41775       352  POPC      H12S           46.1932230625      -44.7030420959       -8.2375607155  MEMB      352             0.0000000000
     41776       352  POPC      C213           44.0238516535      -44.5825493629       -7.8262976523  MEMB      352             0.0000000000
     41777       352  POPC      H13R           43.8662474998      -45.5838421354       -7.3714403459  MEMB      352             0.0000000000
     41778       352  POPC      H13S           43.1235168637      -44.2833172932       -8.4043789763  MEMB      352             0.0000000000
     41779       352  POPC      C214           44.2011939122      -43.6852954689       -6.5645538099  MEMB      352             0.0000000000
     41780       352  POPC      H14R           43.1719045200      -43.5029382563       -6.1882166197  MEMB      352             0.0000000000
     41781       352  POPC      H14S           44.6229864734      -42.6837909478       -6.7956394268  MEMB      352             0.0000000000
     41782       352  POPC      C215           44.9346771509      -44.4277549584       -5.4315041732  MEMB      352             0.0000000000
     41783       352  POPC      H15R           45.9713106184      -44.4817850804       -5.8274748221  MEMB      352             0.0000000000
     41784       352  POPC      H15S           44.6024882688      -45.4867639963       -5.4812163976  MEMB      352             0.0000000000
     41785       352  POPC      C216           44.8097472281      -43.8111403017       -4.0236952422  MEMB      352             0.0000000000
     41786       352  POPC      H16R           45.3796084618      -44.4096273460       -3.2811372665  MEMB      352             0.0000000000
     41787       352  POPC      H16S           43.7480990062      -43.6600264623       -3.7331981723  MEMB      352             0.0000000000
     41788       352  POPC      C217           45.4106193556      -42.4236897923       -3.8135621163  MEMB      352             0.0000000000
     41789       352  POPC      H17R           44.9852580310      -41.7689818204       -4.6039706419  MEMB      352             0.0000000000
     41790       352  POPC      H17S           46.5112875952      -42.5093729943       -3.9380960473  MEMB      352             0.0000000000
     41791       352  POPC      C218           45.2919803895      -41.7413752504       -2.4733642321  MEMB      352             0.0000000000
     41792       352  POPC      H18R           44.2906977393      -41.6039640510       -2.0119831912  MEMB      352             0.0000000000
     41793       352  POPC      H18S           45.7765126289      -40.7422597908       -2.5096701681  MEMB      352             0.0000000000
     41794       352  POPC      H18T           45.7568975392      -42.4347002971       -1.7402388790  MEMB      352             0.0000000000
     41795       352  POPC      C33            41.8644226212      -48.0346517133      -12.8822892455  MEMB      352             0.0000000000
     41796       352  POPC      H3X            40.8313858846      -48.3323479364      -12.6020517936  MEMB      352             0.0000000000
     41797       352  POPC      H3Y            41.8081383892      -47.0158470649      -13.3218230654  MEMB      352             0.0000000000
     41798       352  POPC      C34            42.7285191523      -48.1966461596      -11.6628007770  MEMB      352             0.0000000000
     41799       352  POPC      H4X            43.6279047049      -47.5703067720      -11.8448051163  MEMB      352             0.0000000000
     41800       352  POPC      H4Y            42.9361000768      -49.2818382003      -11.5462275990  MEMB      352             0.0000000000
     41801       352  POPC      C35            42.2004596408      -47.5232874202      -10.4014903049  MEMB      352             0.0000000000
     41802       352  POPC      H5X            42.2262425148      -46.4127816188      -10.3806753064  MEMB      352             0.0000000000
     41803       352  POPC      H5Y            42.9146843379      -47.9294402013       -9.6536637788  MEMB      352             0.0000000000
     41804       352  POPC      C36            40.8330823311      -48.0759623621       -9.9540578052  MEMB      352             0.0000000000
     41805       352  POPC      H6X            40.9394140996      -49.1670525940      -10.1344363640  MEMB      352             0.0000000000
     41806       352  POPC      H6Y            40.0257187796      -47.7404661119      -10.6395702670  MEMB      352             0.0000000000
     41807       352  POPC      C37            40.4381016523      -47.8007896768       -8.5245017761  MEMB      352             0.0000000000
     41808       352  POPC      H7X            41.1280155235      -48.3136667149       -7.8207285965  MEMB      352             0.0000000000
     41809       352  POPC      H7Y            39.4351938677      -48.2656371535       -8.4130858396  MEMB      352             0.0000000000
     41810       352  POPC      C38            40.3234141579      -46.3721463484       -8.1832000443  MEMB      352             0.0000000000
     41811       352  POPC      H8X            39.7097365822      -45.8123443768       -8.9209967494  MEMB      352             0.0000000000
     41812       352  POPC      H8Y            41.3069001676      -45.8554854213       -8.1714630809  MEMB      352             0.0000000000
     41813       352  POPC      C39            39.6277971895      -46.0916034310       -6.8353011967  MEMB      352             0.0000000000
     41814       352  POPC      H9X            38.8413013427      -46.8407063250       -6.6016552943  MEMB      352             0.0000000000
     41815       352  POPC      H9Y            39.1924159230      -45.0703336067       -6.8774058640  MEMB      352             0.0000000000
     41816       352  POPC      C310           40.5470105003      -46.1740047510       -5.6537104121  MEMB      352             0.0000000000
     41817       352  POPC      H10X           41.2898526650      -45.3481123641       -5.6335001377  MEMB      352             0.0000000000
     41818       352  POPC      H10Y           41.1323311916      -47.1158521857       -5.7218585393  MEMB      352             0.0000000000
     41819       352  POPC      C311           39.8379447166      -46.0964532504       -4.3127326952  MEMB      352             0.0000000000
     41820       352  POPC      H11X           39.0086684619      -46.8233406054       -4.1776148610  MEMB      352             0.0000000000
     41821       352  POPC      H11Y           39.3540741208      -45.0963901184       -4.3047105373  MEMB      352             0.0000000000
     41822       352  POPC      C312           40.6658866414      -46.0779266183       -3.0295541338  MEMB      352             0.0000000000
     41823       352  POPC      H12X           40.0182631714      -45.6182663105       -2.2526265553  MEMB      352             0.0000000000
     41824       352  POPC      H12Y           41.4888370717      -45.3556017876       -3.2174907416  MEMB      352             0.0000000000
     41825       352  POPC      C313           41.2375705461      -47.4247849466       -2.7239402479  MEMB      352             0.0000000000
     41826       352  POPC      H13X           41.6102901087      -47.9016172280       -3.6556227779  MEMB      352             0.0000000000
     41827       352  POPC      H13Y           40.3064497312      -47.9812918605       -2.4838673012  MEMB      352             0.0000000000
     41828       352  POPC      C314           42.0368272835      -47.6273847220       -1.4212306389  MEMB      352             0.0000000000
     41829       352  POPC      H14X           42.9964437025      -47.0701748623       -1.4757703653  MEMB      352             0.0000000000
     41830       352  POPC      H14Y           42.2253927250      -48.7184117978       -1.3294484604  MEMB      352             0.0000000000
     41831       352  POPC      C315           41.2947943399      -47.0635134077       -0.1282787920  MEMB      352             0.0000000000
     41832       352  POPC      H15X           40.2660951260      -47.3832192739       -0.4001011898  MEMB      352             0.0000000000
     41833       352  POPC      H15Y           41.3080414951      -45.9554172866       -0.2074535567  MEMB      352             0.0000000000
     41834       352  POPC      C316           41.8910207773      -47.4353769618        1.2389776203  MEMB      352             0.0000000000
     41835       352  POPC      H16X           41.4095984567      -46.8898600266        2.0785990588  MEMB      352             0.0000000000
     41836       352  POPC      H16Y           42.9696112398      -47.2295447785        1.0698731218  MEMB      352             0.0000000000
     41837       352  POPC      H16Z           41.7459050168      -48.5366697729        1.2593773106  MEMB      352             0.0000000000
     41838       353  POPE      N             -29.8176709500      -48.9513290233      -18.1717133015  MEMB      353             0.0000000000
     41839       353  POPE      HN1           -29.8556807222      -48.2261713056      -17.4271990865  MEMB      353             0.0000000000
     41840       353  POPE      HN2           -30.2513934536      -49.7918905990      -17.7393462415  MEMB      353             0.0000000000
     41841       353  POPE      HN3           -28.8562941472      -49.1945734757      -18.4850607918  MEMB      353             0.0000000000
     41842       353  POPE      C12           -30.5688434695      -48.5109910521      -19.3326821477  MEMB      353             0.0000000000
     41843       353  POPE      H12A          -30.2313939078      -49.1005944243      -20.2117818981  MEMB      353             0.0000000000
     41844       353  POPE      H12B          -30.2794235253      -47.4494006918      -19.4862510209  MEMB      353             0.0000000000
     41845       353  POPE      C11           -32.1204710042      -48.8133995408      -19.1388752333  MEMB      353             0.0000000000
     41846       353  POPE      H11A          -32.7159886103      -48.2043513236      -19.8521353704  MEMB      353             0.0000000000
     41847       353  POPE      H11B          -32.4773063721      -48.5586615307      -18.1180432350  MEMB      353             0.0000000000
     41848       353  POPE      P             -33.7786018401      -50.8910727621      -19.1416984506  MEMB      353             0.0000000000
     41849       353  POPE      O13           -34.1475088905      -51.8165072291      -20.2355600617  MEMB      353             0.0000000000
     41850       353  POPE      O14           -34.8137914734      -49.8733792315      -18.7911822629  MEMB      353             0.0000000000
     41851       353  POPE      O11           -33.6366945744      -51.6906754895      -17.8305402040  MEMB      353             0.0000000000
     41852       353  POPE      O12           -32.4605585751      -50.1477421805      -19.3577483414  MEMB      353             0.0000000000
     41853       353  POPE      C1            -32.4611020865      -52.5006270861      -17.7231787803  MEMB      353             0.0000000000
     41854       353  POPE      HA            -31.5907984230      -51.8251329033      -17.8667060892  MEMB      353             0.0000000000
     41855       353  POPE      HB            -32.3822612534      -53.1985376927      -18.5840072975  MEMB      353             0.0000000000
     41856       353  POPE      C2            -32.3872078427      -53.0833083064      -16.3021010657  MEMB      353             0.0000000000
     41857       353  POPE      HS            -33.3368782592      -53.6418161610      -16.1588660770  MEMB      353             0.0000000000
     41858       353  POPE      O21           -32.1070700688      -51.9725787446      -15.4640425563  MEMB      353             0.0000000000
     41859       353  POPE      C21           -33.0459397619      -51.4767028123      -14.7287202154  MEMB      353             0.0000000000
     41860       353  POPE      O22           -34.2237135959      -51.7244534648      -14.7780537889  MEMB      353             0.0000000000
     41861       353  POPE      C22           -32.3870710963      -50.5230766752      -13.7784407096  MEMB      353             0.0000000000
     41862       353  POPE      H2R           -31.9664139899      -49.6686795256      -14.3506071894  MEMB      353             0.0000000000
     41863       353  POPE      H2S           -31.6160388315      -51.0547861154      -13.1808495234  MEMB      353             0.0000000000
     41864       353  POPE      C3            -31.2973004172      -54.1745518534      -16.1933781170  MEMB      353             0.0000000000
     41865       353  POPE      HX            -30.3036767976      -53.6936827240      -16.3190677884  MEMB      353             0.0000000000
     41866       353  POPE      HY            -31.4453479051      -54.9542231265      -16.9708841130  MEMB      353             0.0000000000
     41867       353  POPE      O31           -31.3657534465      -54.7699603597      -14.8993114563  MEMB      353             0.0000000000
     41868       353  POPE      C31           -32.1441069221      -55.7750353889      -14.8467466713  MEMB      353             0.0000000000
     41869       353  POPE      O32           -32.9643361848      -56.1593604303      -15.6597850111  MEMB      353             0.0000000000
     41870       353  POPE      C32           -31.7945148338      -56.5071872669      -13.5252085212  MEMB      353             0.0000000000
     41871       353  POPE      H2X           -30.8639904165      -56.1194055564      -13.0582282401  MEMB      353             0.0000000000
     41872       353  POPE      H2Y           -31.6032249795      -57.5829973933      -13.7261105327  MEMB      353             0.0000000000
     41873       353  POPE      C23           -33.3383390276      -49.9074315174      -12.6892767307  MEMB      353             0.0000000000
     41874       353  POPE      H3R           -33.3311379900      -50.6514506996      -11.8642282318  MEMB      353             0.0000000000
     41875       353  POPE      H3S           -34.3638074324      -49.7557476759      -13.0889357104  MEMB      353             0.0000000000
     41876       353  POPE      C24           -33.0778566309      -48.4229142638      -12.1326071192  MEMB      353             0.0000000000
     41877       353  POPE      H4R           -33.9874536326      -48.1930239010      -11.5375399919  MEMB      353             0.0000000000
     41878       353  POPE      H4S           -33.1291291510      -47.6327266476      -12.9118986043  MEMB      353             0.0000000000
     41879       353  POPE      C25           -31.8454755660      -48.2402157070      -11.1683855867  MEMB      353             0.0000000000
     41880       353  POPE      H5R           -31.8174165013      -47.2012603837      -10.7758225538  MEMB      353             0.0000000000
     41881       353  POPE      H5S           -30.8878533207      -48.4352865647      -11.6968060185  MEMB      353             0.0000000000
     41882       353  POPE      C26           -31.9383024229      -49.1668547162       -9.9788626600  MEMB      353             0.0000000000
     41883       353  POPE      H6R           -31.8749250638      -50.2484546266      -10.2247206790  MEMB      353             0.0000000000
     41884       353  POPE      H6S           -32.9383835188      -48.9220832022       -9.5614356073  MEMB      353             0.0000000000
     41885       353  POPE      C27           -30.9863378079      -48.7063016827       -8.8140904769  MEMB      353             0.0000000000
     41886       353  POPE      H7R           -31.1414175993      -49.3839896824       -7.9474820625  MEMB      353             0.0000000000
     41887       353  POPE      H7S           -31.3736522246      -47.7562624771       -8.3877878855  MEMB      353             0.0000000000
     41888       353  POPE      C28           -29.5174071969      -48.5034793290       -9.1370821333  MEMB      353             0.0000000000
     41889       353  POPE      H8R           -29.0784978751      -48.5579959674       -8.1179128244  MEMB      353             0.0000000000
     41890       353  POPE      H8S           -29.2635563046      -47.5528427947       -9.6529997231  MEMB      353             0.0000000000
     41891       353  POPE      C29           -28.8102280737      -49.6331802487       -9.9805202812  MEMB      353             0.0000000000
     41892       353  POPE      H91           -29.0946487566      -49.6048934126      -11.0427370062  MEMB      353             0.0000000000
     41893       353  POPE      C210          -28.0832716370      -50.6671369931       -9.5636981560  MEMB      353             0.0000000000
     41894       353  POPE      H101          -27.6943968789      -51.3538546363      -10.3299848904  MEMB      353             0.0000000000
     41895       353  POPE      C211          -27.7300685266      -51.0110496623       -8.0963025106  MEMB      353             0.0000000000
     41896       353  POPE      H11R          -27.9606420277      -50.0821133494       -7.5321800747  MEMB      353             0.0000000000
     41897       353  POPE      H11S          -26.6879993752      -51.3879641448       -8.0166252007  MEMB      353             0.0000000000
     41898       353  POPE      C212          -28.8482498170      -51.9429585284       -7.4661771252  MEMB      353             0.0000000000
     41899       353  POPE      H12R          -29.8205595868      -51.4357293571       -7.6440891427  MEMB      353             0.0000000000
     41900       353  POPE      H12S          -28.6654198883      -51.8715666922       -6.3726515146  MEMB      353             0.0000000000
     41901       353  POPE      C213          -28.9333675502      -53.3971660921       -7.9371300771  MEMB      353             0.0000000000
     41902       353  POPE      H13R          -28.4375066280      -53.6165000741       -8.9068389796  MEMB      353             0.0000000000
     41903       353  POPE      H13S          -30.0057248068      -53.6043374597       -8.1407253221  MEMB      353             0.0000000000
     41904       353  POPE      C214          -28.4093716591      -54.3862989017       -6.8875770119  MEMB      353             0.0000000000
     41905       353  POPE      H14R          -27.4423390520      -54.0782451873       -6.4356117637  MEMB      353             0.0000000000
     41906       353  POPE      H14S          -28.4012648796      -55.3618704761       -7.4190987324  MEMB      353             0.0000000000
     41907       353  POPE      C215          -29.4002501900      -54.5767023730       -5.7337073679  MEMB      353             0.0000000000
     41908       353  POPE      H15R          -30.1400334722      -55.3637401598       -5.9937326983  MEMB      353             0.0000000000
     41909       353  POPE      H15S          -29.8652890006      -53.5769027553       -5.5978382916  MEMB      353             0.0000000000
     41910       353  POPE      C216          -28.7506321874      -55.0269203947       -4.4269516190  MEMB      353             0.0000000000
     41911       353  POPE      H16R          -29.4557513661      -55.3788321914       -3.6438255563  MEMB      353             0.0000000000
     41912       353  POPE      H16S          -28.2326345542      -54.1810793104       -3.9263999995  MEMB      353             0.0000000000
     41913       353  POPE      C217          -27.6964478686      -56.1311703644       -4.5349455296  MEMB      353             0.0000000000
     41914       353  POPE      H17R          -26.7618336143      -55.8049669479       -5.0393348307  MEMB      353             0.0000000000
     41915       353  POPE      H17S          -28.2292358385      -56.9593299936       -5.0493478758  MEMB      353             0.0000000000
     41916       353  POPE      C218          -27.3607256054      -56.7184450598       -3.2131338753  MEMB      353             0.0000000000
     41917       353  POPE      H18R          -28.3235413122      -57.0614691793       -2.7776560074  MEMB      353             0.0000000000
     41918       353  POPE      H18S          -26.9543376051      -55.9461738790       -2.5255533890  MEMB      353             0.0000000000
     41919       353  POPE      H18T          -26.6148369665      -57.5320731128       -3.3395472750  MEMB      353             0.0000000000
     41920       353  POPE      C33           -32.9401903698      -56.4893326370      -12.5683746846  MEMB      353             0.0000000000
     41921       353  POPE      H3X           -32.7792480163      -57.3177353944      -11.8457629387  MEMB      353             0.0000000000
     41922       353  POPE      H3Y           -33.9023798303      -56.7913631562      -13.0345191294  MEMB      353             0.0000000000
     41923       353  POPE      C34           -33.0828466421      -55.1818087510      -11.7801874286  MEMB      353             0.0000000000
     41924       353  POPE      H4X           -33.1598471718      -54.3760656056      -12.5412196634  MEMB      353             0.0000000000
     41925       353  POPE      H4Y           -32.1962107853      -54.9998172100      -11.1359223899  MEMB      353             0.0000000000
     41926       353  POPE      C35           -34.3883956412      -55.2553865560      -10.9224851681  MEMB      353             0.0000000000
     41927       353  POPE      H5X           -34.5202566301      -56.3306325390      -10.6759498634  MEMB      353             0.0000000000
     41928       353  POPE      H5Y           -35.2349027202      -54.8101340995      -11.4877261456  MEMB      353             0.0000000000
     41929       353  POPE      C36           -34.2340494009      -54.5638372351       -9.6183629448  MEMB      353             0.0000000000
     41930       353  POPE      H6X           -33.5446673185      -55.1868831227       -9.0093577072  MEMB      353             0.0000000000
     41931       353  POPE      H6Y           -35.2125733069      -54.4708614916       -9.1005135434  MEMB      353             0.0000000000
     41932       353  POPE      C37           -33.7464103882      -53.1689229754       -9.8459222491  MEMB      353             0.0000000000
     41933       353  POPE      H7X           -34.4459700101      -52.7081692157      -10.5757466788  MEMB      353             0.0000000000
     41934       353  POPE      H7Y           -32.7641381570      -53.1322711121      -10.3637238772  MEMB      353             0.0000000000
     41935       353  POPE      C38           -33.4581280974      -52.4756706004       -8.5511289646  MEMB      353             0.0000000000
     41936       353  POPE      H8X           -32.7166234161      -51.6706272367       -8.7419097239  MEMB      353             0.0000000000
     41937       353  POPE      H8Y           -33.0339819543      -53.1784692067       -7.8024670021  MEMB      353             0.0000000000
     41938       353  POPE      C39           -34.6801101730      -51.7662001680       -7.9081059373  MEMB      353             0.0000000000
     41939       353  POPE      H9X           -35.2777567496      -52.5255435949       -7.3598926650  MEMB      353             0.0000000000
     41940       353  POPE      H9Y           -35.2624848191      -51.2512959920       -8.7018530701  MEMB      353             0.0000000000
     41941       353  POPE      C310          -34.2811154662      -50.7233930514       -6.8362741140  MEMB      353             0.0000000000
     41942       353  POPE      H10X          -35.1353200800      -50.4821567716       -6.1680969608  MEMB      353             0.0000000000
     41943       353  POPE      H10Y          -33.8889736800      -49.8038395881       -7.3210078791  MEMB      353             0.0000000000
     41944       353  POPE      C311          -33.2212316574      -51.1848903619       -5.7803892017  MEMB      353             0.0000000000
     41945       353  POPE      H11X          -32.2784046325      -51.4018800965       -6.3265701065  MEMB      353             0.0000000000
     41946       353  POPE      H11Y          -33.5779193276      -52.2043130893       -5.5198657315  MEMB      353             0.0000000000
     41947       353  POPE      C312          -33.0822831855      -50.3851889038       -4.4602227271  MEMB      353             0.0000000000
     41948       353  POPE      H12X          -34.0782652719      -50.3075463746       -3.9741029474  MEMB      353             0.0000000000
     41949       353  POPE      H12Y          -32.7555388754      -49.3751151699       -4.7878051183  MEMB      353             0.0000000000
     41950       353  POPE      C313          -32.0786894945      -50.9585460108       -3.4693130471  MEMB      353             0.0000000000
     41951       353  POPE      H13X          -32.0808890042      -50.4441622096       -2.4845662436  MEMB      353             0.0000000000
     41952       353  POPE      H13Y          -31.0437813944      -50.8557601401       -3.8601087897  MEMB      353             0.0000000000
     41953       353  POPE      C314          -32.0320599094      -52.4740515121       -3.3734573568  MEMB      353             0.0000000000
     41954       353  POPE      H14X          -31.7854552504      -52.9627226461       -4.3402599686  MEMB      353             0.0000000000
     41955       353  POPE      H14Y          -32.9868118958      -52.8205748374       -2.9232454984  MEMB      353             0.0000000000
     41956       353  POPE      C315          -30.9007276852      -52.9680247946       -2.4485551863  MEMB      353             0.0000000000
     41957       353  POPE      H15X          -29.9117167633      -52.4618997603       -2.4525709689  MEMB      353             0.0000000000
     41958       353  POPE      H15Y          -30.8532155529      -54.0415448579       -2.7307223401  MEMB      353             0.0000000000
     41959       353  POPE      C316          -31.3731219880      -52.9085211186       -0.9864658439  MEMB      353             0.0000000000
     41960       353  POPE      H16X          -32.4801993771      -52.9976239470       -0.9588750063  MEMB      353             0.0000000000
     41961       353  POPE      H16Y          -31.0625872272      -51.9649948671       -0.4888240762  MEMB      353             0.0000000000
     41962       353  POPE      H16Z          -30.8550035292      -53.5964551706       -0.2845975814  MEMB      353             0.0000000000
     41963       354  POPC      N              47.5665992025       49.0455954229      -19.1140183890  MEMB      354             0.0000000000
     41964       354  POPC      C12            48.1031649988       50.2867180843      -19.8105613130  MEMB      354             0.0000000000
     41965       354  POPC      H12A           47.4918759151       51.1385158070      -19.5513970635  MEMB      354             0.0000000000
     41966       354  POPC      H12B           48.0495693348       50.2180953781      -20.8870456034  MEMB      354             0.0000000000
     41967       354  POPC      C13            48.0814986934       48.9763462298      -17.6637321877  MEMB      354             0.0000000000
     41968       354  POPC      H13A           49.1334193631       48.7321532648      -17.6789855996  MEMB      354             0.0000000000
     41969       354  POPC      H13B           48.0555923643       49.9473154238      -17.1915588465  MEMB      354             0.0000000000
     41970       354  POPC      H13C           47.5657481765       48.2492462374      -17.0540378479  MEMB      354             0.0000000000
     41971       354  POPC      C14            46.0719093492       49.1577474723      -19.0678069172  MEMB      354             0.0000000000
     41972       354  POPC      H14A           45.7352592542       49.1482540612      -20.0939534515  MEMB      354             0.0000000000
     41973       354  POPC      H14B           45.7654215600       48.2679616752      -18.5379516254  MEMB      354             0.0000000000
     41974       354  POPC      H14C           45.7653265460       49.9687114933      -18.4238005275  MEMB      354             0.0000000000
     41975       354  POPC      C15            47.8918687820       47.7355220406      -19.8006937018  MEMB      354             0.0000000000
     41976       354  POPC      H15A           47.4924983600       47.5926779672      -20.7939203261  MEMB      354             0.0000000000
     41977       354  POPC      H15B           47.3298081441       47.0462300826      -19.1880237672  MEMB      354             0.0000000000
     41978       354  POPC      H15C           48.9504010020       47.6477708037      -19.9961655693  MEMB      354             0.0000000000
     41979       354  POPC      C11            49.5575470855       50.7244064784      -19.4557986110  MEMB      354             0.0000000000
     41980       354  POPC      H11A           49.7353340933       51.0440029817      -18.4067176768  MEMB      354             0.0000000000
     41981       354  POPC      H11B           49.8866591878       51.5153202451      -20.1632316157  MEMB      354             0.0000000000
     41982       354  POPC      P              51.7777423571       49.4583995526      -18.8841819942  MEMB      354             0.0000000000
     41983       354  POPC      O13            52.6564579878       50.6107436946      -19.0052766923  MEMB      354             0.0000000000
     41984       354  POPC      O14            52.4008003493       48.1614417370      -19.1825975494  MEMB      354             0.0000000000
     41985       354  POPC      O12            50.4409599397       49.6198245042      -19.6709810787  MEMB      354             0.0000000000
     41986       354  POPC      O11            51.2985651565       49.3855238823      -17.3443515701  MEMB      354             0.0000000000
     41987       354  POPC      C1             51.8643226216       50.1485475006      -16.3571748419  MEMB      354             0.0000000000
     41988       354  POPC      HA             52.0463065260       51.2083858753      -16.6363616756  MEMB      354             0.0000000000
     41989       354  POPC      HB             52.8622595098       49.6999112207      -16.1643834633  MEMB      354             0.0000000000
     41990       354  POPC      C2             50.9386386459       50.1278205150      -15.0592761985  MEMB      354             0.0000000000
     41991       354  POPC      HS             51.5611094816       50.4222532562      -14.1874044768  MEMB      354             0.0000000000
     41992       354  POPC      O21            50.3366262103       48.8607597568      -14.8576337986  MEMB      354             0.0000000000
     41993       354  POPC      C21            51.1669673694       47.9734436139      -14.3235506962  MEMB      354             0.0000000000
     41994       354  POPC      O22            52.2865151021       48.2105370600      -13.9935835406  MEMB      354             0.0000000000
     41995       354  POPC      C22            50.4389870715       46.6262215785      -14.1149315469  MEMB      354             0.0000000000
     41996       354  POPC      H2R            51.1656703830       45.8683697196      -14.4781300873  MEMB      354             0.0000000000
     41997       354  POPC      H2S            49.4868738866       46.3651186196      -14.6244673687  MEMB      354             0.0000000000
     41998       354  POPC      C3             49.8611452219       51.1950401900      -15.2872454978  MEMB      354             0.0000000000
     41999       354  POPC      HX             49.4133421454       50.8975064158      -16.2594939141  MEMB      354             0.0000000000
     42000       354  POPC      HY             50.2920718088       52.2139121796      -15.3898285003  MEMB      354             0.0000000000
     42001       354  POPC      O31            48.8433044853       51.2416772752      -14.2060753927  MEMB      354             0.0000000000
     42002       354  POPC      C31            49.2317512381       51.6037413595      -12.9701551240  MEMB      354             0.0000000000
     42003       354  POPC      O32            50.2406731032       52.1764174341      -12.6175540425  MEMB      354             0.0000000000
     42004       354  POPC      C32            48.1600492272       51.1324523709      -11.9393853413  MEMB      354             0.0000000000
     42005       354  POPC      H2X            48.6335865044       50.3639727279      -11.2916796648  MEMB      354             0.0000000000
     42006       354  POPC      H2Y            47.3439783231       50.6116834514      -12.4844989480  MEMB      354             0.0000000000
     42007       354  POPC      C23            50.3932823416       46.3622862162      -12.5974988215  MEMB      354             0.0000000000
     42008       354  POPC      H3R            51.4216992843       46.4828648321      -12.1948323546  MEMB      354             0.0000000000
     42009       354  POPC      H3S            50.0277135524       45.3291247314      -12.4151301834  MEMB      354             0.0000000000
     42010       354  POPC      C24            49.4349347682       47.1897460080      -11.6916075165  MEMB      354             0.0000000000
     42011       354  POPC      H4R            48.4142972521       46.9494029022      -12.0588340759  MEMB      354             0.0000000000
     42012       354  POPC      H4S            49.6362049462       48.2649557713      -11.8858633108  MEMB      354             0.0000000000
     42013       354  POPC      C25            49.4000190489       46.7381403255      -10.1526431455  MEMB      354             0.0000000000
     42014       354  POPC      H5R            50.3030026992       47.1196580153       -9.6297800957  MEMB      354             0.0000000000
     42015       354  POPC      H5S            49.3119562068       45.6312140638      -10.1168616675  MEMB      354             0.0000000000
     42016       354  POPC      C26            48.2867516598       47.4533604386       -9.4132786179  MEMB      354             0.0000000000
     42017       354  POPC      H6R            47.3258137627       47.4343884003       -9.9705569955  MEMB      354             0.0000000000
     42018       354  POPC      H6S            48.3678254301       48.5595503009       -9.3493102236  MEMB      354             0.0000000000
     42019       354  POPC      C27            48.0563781993       46.8810981867       -7.9442505529  MEMB      354             0.0000000000
     42020       354  POPC      H7R            49.1312737701       46.7410805714       -7.7007026531  MEMB      354             0.0000000000
     42021       354  POPC      H7S            47.4738796799       45.9365585680       -7.8907598285  MEMB      354             0.0000000000
     42022       354  POPC      C28            47.3852711980       47.8235383533       -6.9126137318  MEMB      354             0.0000000000
     42023       354  POPC      H8R            48.1136953132       48.6417527299       -6.7275610293  MEMB      354             0.0000000000
     42024       354  POPC      H8S            47.2348175828       47.2657797974       -5.9636193772  MEMB      354             0.0000000000
     42025       354  POPC      C29            46.0576834346       48.3089086541       -7.3504279987  MEMB      354             0.0000000000
     42026       354  POPC      H91            45.3859058794       47.4768913152       -7.6082303205  MEMB      354             0.0000000000
     42027       354  POPC      C210           45.6428855603       49.5622248246       -7.6261039968  MEMB      354             0.0000000000
     42028       354  POPC      H101           44.5483414467       49.5843459177       -7.7332657915  MEMB      354             0.0000000000
     42029       354  POPC      C211           46.4695333455       50.8649035027       -7.5650147329  MEMB      354             0.0000000000
     42030       354  POPC      H11R           46.3880549980       51.3123335818       -8.5786662824  MEMB      354             0.0000000000
     42031       354  POPC      H11S           47.5455876909       50.6056178397       -7.4691034450  MEMB      354             0.0000000000
     42032       354  POPC      C212           46.0586596674       51.8063892692       -6.4346392835  MEMB      354             0.0000000000
     42033       354  POPC      H12R           46.0448159884       51.3172550430       -5.4372042809  MEMB      354             0.0000000000
     42034       354  POPC      H12S           45.0511673872       52.2220803073       -6.6502349259  MEMB      354             0.0000000000
     42035       354  POPC      C213           47.1079154087       52.9728800316       -6.2238207431  MEMB      354             0.0000000000
     42036       354  POPC      H13R           46.6257775914       53.9169529174       -5.8912707471  MEMB      354             0.0000000000
     42037       354  POPC      H13S           47.3096222445       53.4050665617       -7.2272401742  MEMB      354             0.0000000000
     42038       354  POPC      C214           48.3367697130       52.5751888718       -5.3486301087  MEMB      354             0.0000000000
     42039       354  POPC      H14R           49.0782907282       53.4015677866       -5.3090607669  MEMB      354             0.0000000000
     42040       354  POPC      H14S           48.7284662211       51.6461352227       -5.8152715101  MEMB      354             0.0000000000
     42041       354  POPC      C215           48.0774561509       52.2476342271       -3.8340748545  MEMB      354             0.0000000000
     42042       354  POPC      H15R           47.1627206011       51.6409860610       -3.6621516145  MEMB      354             0.0000000000
     42043       354  POPC      H15S           47.9266227078       53.2458335710       -3.3702120011  MEMB      354             0.0000000000
     42044       354  POPC      C216           49.2054856378       51.5240824130       -3.2024515087  MEMB      354             0.0000000000
     42045       354  POPC      H16R           50.0432608567       52.2487342136       -3.1168150471  MEMB      354             0.0000000000
     42046       354  POPC      H16S           49.5642570763       50.5728884846       -3.6505971318  MEMB      354             0.0000000000
     42047       354  POPC      C217           48.9009235580       51.2493044706       -1.6953385870  MEMB      354             0.0000000000
     42048       354  POPC      H17R           49.7565481683       50.6057909631       -1.3984923933  MEMB      354             0.0000000000
     42049       354  POPC      H17S           47.9629958433       50.6589913181       -1.7737162411  MEMB      354             0.0000000000
     42050       354  POPC      C218           48.6196211736       52.5062619639       -0.9465286865  MEMB      354             0.0000000000
     42051       354  POPC      H18R           49.3866886927       53.2728840220       -1.1878127871  MEMB      354             0.0000000000
     42052       354  POPC      H18S           48.5827082093       52.2066093876        0.1226610438  MEMB      354             0.0000000000
     42053       354  POPC      H18T           47.5682047979       52.7953518988       -1.1593010045  MEMB      354             0.0000000000
     42054       354  POPC      C33            47.5875183055       52.3490812942      -11.0738985959  MEMB      354             0.0000000000
     42055       354  POPC      H3X            46.8166557144       51.8822644907      -10.4241498182  MEMB      354             0.0000000000
     42056       354  POPC      H3Y            47.0078578575       52.9970034229      -11.7656440554  MEMB      354             0.0000000000
     42057       354  POPC      C34            48.5685102615       53.1437618873      -10.2444035717  MEMB      354             0.0000000000
     42058       354  POPC      H4X            47.8598520945       53.8590708578       -9.7748753382  MEMB      354             0.0000000000
     42059       354  POPC      H4Y            49.1685269597       53.7951599795      -10.9152109423  MEMB      354             0.0000000000
     42060       354  POPC      C35            49.3190754661       52.3622481129       -9.1594100837  MEMB      354             0.0000000000
     42061       354  POPC      H5X            48.6164688305       51.5832381045       -8.7936129852  MEMB      354             0.0000000000
     42062       354  POPC      H5Y            49.5980379376       52.9896737292       -8.2860040464  MEMB      354             0.0000000000
     42063       354  POPC      C36            50.6135715913       51.6557984098       -9.6874882905  MEMB      354             0.0000000000
     42064       354  POPC      H6X            51.3240888046       52.2757647469      -10.2749636952  MEMB      354             0.0000000000
     42065       354  POPC      H6Y            50.3760216826       50.7241327751      -10.2441655456  MEMB      354             0.0000000000
     42066       354  POPC      C37            51.4664057365       51.1868526519       -8.5477241028  MEMB      354             0.0000000000
     42067       354  POPC      H7X            51.7409488448       51.8734371936       -7.7185384010  MEMB      354             0.0000000000
     42068       354  POPC      H7Y            52.4726711404       51.0316428738       -8.9923140183  MEMB      354             0.0000000000
     42069       354  POPC      C38            51.0707535332       49.7518697355       -7.9098938769  MEMB      354             0.0000000000
     42070       354  POPC      H8X            50.9539839811       48.9431288002       -8.6626383549  MEMB      354             0.0000000000
     42071       354  POPC      H8Y            50.1442473223       49.8097167128       -7.2995167190  MEMB      354             0.0000000000
     42072       354  POPC      C39            52.1285608348       49.1886515899       -6.9499547276  MEMB      354             0.0000000000
     42073       354  POPC      H9X            52.2935101828       49.9659265537       -6.1734519973  MEMB      354             0.0000000000
     42074       354  POPC      H9Y            53.0846990057       49.2013497216       -7.5156038410  MEMB      354             0.0000000000
     42075       354  POPC      C310           51.9534881758       47.8008476120       -6.2244531177  MEMB      354             0.0000000000
     42076       354  POPC      H10X           52.8282610190       47.5107150558       -5.6040360715  MEMB      354             0.0000000000
     42077       354  POPC      H10Y           51.8911059304       47.0881771091       -7.0744709337  MEMB      354             0.0000000000
     42078       354  POPC      C311           50.7648664202       47.8022241627       -5.3047817740  MEMB      354             0.0000000000
     42079       354  POPC      H11X           49.8693523632       47.9863576870       -5.9360269252  MEMB      354             0.0000000000
     42080       354  POPC      H11Y           50.9610725248       48.6804580937       -4.6532221934  MEMB      354             0.0000000000
     42081       354  POPC      C312           50.3878171297       46.4544819366       -4.6402826115  MEMB      354             0.0000000000
     42082       354  POPC      H12X           51.2229941710       45.9053940822       -4.1552023609  MEMB      354             0.0000000000
     42083       354  POPC      H12Y           50.0711454536       45.8061451615       -5.4850900155  MEMB      354             0.0000000000
     42084       354  POPC      C313           49.0847512507       46.5499608361       -3.7685264870  MEMB      354             0.0000000000
     42085       354  POPC      H13X           48.7629169644       45.4999413222       -3.6005903649  MEMB      354             0.0000000000
     42086       354  POPC      H13Y           48.2736160879       47.1053643305       -4.2861244874  MEMB      354             0.0000000000
     42087       354  POPC      C314           49.2457290840       47.0300622261       -2.3637677499  MEMB      354             0.0000000000
     42088       354  POPC      H14X           48.2512022055       47.1332312793       -1.8794192601  MEMB      354             0.0000000000
     42089       354  POPC      H14Y           49.5722259813       48.0756512536       -2.1781210633  MEMB      354             0.0000000000
     42090       354  POPC      C315           50.2982161370       46.2427930368       -1.5243777925  MEMB      354             0.0000000000
     42091       354  POPC      H15X           51.3219622107       46.5632766330       -1.8134357473  MEMB      354             0.0000000000
     42092       354  POPC      H15Y           50.2474586397       45.2049961737       -1.9177251250  MEMB      354             0.0000000000
     42093       354  POPC      C316           50.0759168461       46.3111463427       -0.0012441644  MEMB      354             0.0000000000
     42094       354  POPC      H16X           49.2495788043       45.6851918625        0.3983400482  MEMB      354             0.0000000000
     42095       354  POPC      H16Y           50.0462272500       47.3334134352        0.4328170788  MEMB      354             0.0000000000
     42096       354  POPC      H16Z           50.9996027468       45.8079123158        0.3563598944  MEMB      354             0.0000000000
     42097       355  POPE      N              54.1687910817      -33.1152213079      -21.9369627220  MEMB      355             0.0000000000
     42098       355  POPE      HN1            53.6745480173      -33.6495672738      -21.1941314243  MEMB      355             0.0000000000
     42099       355  POPE      HN2            53.5847933581      -32.4734694783      -22.5102874649  MEMB      355             0.0000000000
     42100       355  POPE      HN3            54.6052952937      -33.7644264849      -22.6222339952  MEMB      355             0.0000000000
     42101       355  POPE      C12            55.2947521431      -32.3308357052      -21.3726038366  MEMB      355             0.0000000000
     42102       355  POPE      H12A           55.7663345584      -31.8127089543      -22.2348539942  MEMB      355             0.0000000000
     42103       355  POPE      H12B           56.0806550801      -33.0488022819      -21.0544818608  MEMB      355             0.0000000000
     42104       355  POPE      C11            54.9335671394      -31.4960536349      -20.1621616503  MEMB      355             0.0000000000
     42105       355  POPE      H11A           54.0914946961      -30.8380536216      -20.4659231584  MEMB      355             0.0000000000
     42106       355  POPE      H11B           55.8286695448      -30.8648333415      -19.9759533395  MEMB      355             0.0000000000
     42107       355  POPE      P              54.4750334276      -31.6817385194      -17.7057371944  MEMB      355             0.0000000000
     42108       355  POPE      O13            53.6256428456      -30.5137541361      -17.8812189193  MEMB      355             0.0000000000
     42109       355  POPE      O14            55.7719024295      -31.4086952267      -17.0510652581  MEMB      355             0.0000000000
     42110       355  POPE      O11            53.7206816088      -32.6780926296      -16.7487283642  MEMB      355             0.0000000000
     42111       355  POPE      O12            54.5967837288      -32.3643304583      -19.1415220450  MEMB      355             0.0000000000
     42112       355  POPE      C1             52.7784166251      -33.6200760520      -17.2295699200  MEMB      355             0.0000000000
     42113       355  POPE      HA             52.9972005517      -33.9129466567      -18.2787035721  MEMB      355             0.0000000000
     42114       355  POPE      HB             51.8380343962      -33.0290702754      -17.2562927073  MEMB      355             0.0000000000
     42115       355  POPE      C2             52.5525918871      -34.8184454375      -16.2311415365  MEMB      355             0.0000000000
     42116       355  POPE      HS             51.6563910296      -35.3670078174      -16.5920078196  MEMB      355             0.0000000000
     42117       355  POPE      O21            52.2988989351      -34.3903649067      -14.8943856207  MEMB      355             0.0000000000
     42118       355  POPE      C21            51.9219194627      -35.1929442889      -13.9513476657  MEMB      355             0.0000000000
     42119       355  POPE      O22            51.3882718661      -36.3079056893      -14.1349822859  MEMB      355             0.0000000000
     42120       355  POPE      C22            52.1858188882      -34.4845989461      -12.5591199792  MEMB      355             0.0000000000
     42121       355  POPE      H2R            51.6943385206      -33.4885416844      -12.5843744626  MEMB      355             0.0000000000
     42122       355  POPE      H2S            53.2690038070      -34.3462041719      -12.3544772723  MEMB      355             0.0000000000
     42123       355  POPE      C3             53.7382549250      -35.7996620533      -16.1695370022  MEMB      355             0.0000000000
     42124       355  POPE      HX             53.9311033533      -36.1716110973      -17.1985093533  MEMB      355             0.0000000000
     42125       355  POPE      HY             53.4691833030      -36.7161562223      -15.6021219849  MEMB      355             0.0000000000
     42126       355  POPE      O31            54.9690894068      -35.1514888733      -15.7564647831  MEMB      355             0.0000000000
     42127       355  POPE      C31            55.5132234854      -35.5733503138      -14.6599692283  MEMB      355             0.0000000000
     42128       355  POPE      O32            55.0219992389      -36.2626993126      -13.8209331500  MEMB      355             0.0000000000
     42129       355  POPE      C32            56.9233014918      -34.9178533989      -14.6581961530  MEMB      355             0.0000000000
     42130       355  POPE      H2X            56.8012421294      -33.8218916213      -14.7934365816  MEMB      355             0.0000000000
     42131       355  POPE      H2Y            57.3548646714      -35.1977288866      -15.6429518878  MEMB      355             0.0000000000
     42132       355  POPE      C23            51.7025875134      -35.4533536982      -11.5686190725  MEMB      355             0.0000000000
     42133       355  POPE      H3R            52.1745111113      -36.4552788567      -11.6566819642  MEMB      355             0.0000000000
     42134       355  POPE      H3S            50.6260855600      -35.5683316592      -11.8181086206  MEMB      355             0.0000000000
     42135       355  POPE      C24            51.8550333368      -35.0337533494      -10.0600728843  MEMB      355             0.0000000000
     42136       355  POPE      H4R            51.4220972815      -34.0281557916       -9.8712317689  MEMB      355             0.0000000000
     42137       355  POPE      H4S            52.9378592943      -34.8021758414       -9.9696234843  MEMB      355             0.0000000000
     42138       355  POPE      C25            51.2780981641      -36.1093589838       -9.0953079683  MEMB      355             0.0000000000
     42139       355  POPE      H5R            51.4644510150      -37.1577678838       -9.4122192070  MEMB      355             0.0000000000
     42140       355  POPE      H5S            50.2005938828      -35.8502282121       -9.1737731449  MEMB      355             0.0000000000
     42141       355  POPE      C26            51.7124093385      -35.8899102366       -7.6720846870  MEMB      355             0.0000000000
     42142       355  POPE      H6R            51.6161197121      -34.7958691090       -7.5043840466  MEMB      355             0.0000000000
     42143       355  POPE      H6S            52.7628460922      -36.1092161398       -7.3843194802  MEMB      355             0.0000000000
     42144       355  POPE      C27            50.9787511699      -36.7239688401       -6.6083679614  MEMB      355             0.0000000000
     42145       355  POPE      H7R            51.0592263197      -37.8185639858       -6.7807207676  MEMB      355             0.0000000000
     42146       355  POPE      H7S            49.9310674989      -36.4363259859       -6.8406208730  MEMB      355             0.0000000000
     42147       355  POPE      C28            51.3803288126      -36.3573422805       -5.2299275162  MEMB      355             0.0000000000
     42148       355  POPE      H8R            50.7963407997      -36.9119289918       -4.4646090062  MEMB      355             0.0000000000
     42149       355  POPE      H8S            51.0344460868      -35.3399762302       -4.9476998774  MEMB      355             0.0000000000
     42150       355  POPE      C29            52.8829404554      -36.5701212508       -4.8836082627  MEMB      355             0.0000000000
     42151       355  POPE      H91            53.4681000840      -37.2750132018       -5.4924725604  MEMB      355             0.0000000000
     42152       355  POPE      C210           53.5266789641      -36.0088816055       -3.8508614744  MEMB      355             0.0000000000
     42153       355  POPE      H101           54.5904177147      -36.2854501548       -3.8064788558  MEMB      355             0.0000000000
     42154       355  POPE      C211           52.9470069294      -35.1270837194       -2.8019584691  MEMB      355             0.0000000000
     42155       355  POPE      H11R           51.8537019822      -35.2338780181       -2.6358248023  MEMB      355             0.0000000000
     42156       355  POPE      H11S           53.0936064266      -34.0578766268       -3.0658247512  MEMB      355             0.0000000000
     42157       355  POPE      C212           53.6549172674      -35.4025024771       -1.5231706172  MEMB      355             0.0000000000
     42158       355  POPE      H12R           54.6787872142      -35.0106904628       -1.7034342522  MEMB      355             0.0000000000
     42159       355  POPE      H12S           53.6776494245      -36.4657467002       -1.2017439230  MEMB      355             0.0000000000
     42160       355  POPE      C213           53.1832306457      -34.6215786498       -0.3180012012  MEMB      355             0.0000000000
     42161       355  POPE      H13R           53.5691519920      -35.0557881341        0.6290195370  MEMB      355             0.0000000000
     42162       355  POPE      H13S           52.0861773723      -34.7382962274       -0.1869610132  MEMB      355             0.0000000000
     42163       355  POPE      C214           53.4753734854      -33.1148889106       -0.4322194582  MEMB      355             0.0000000000
     42164       355  POPE      H14R           52.9999320751      -32.5953835127       -1.2915173587  MEMB      355             0.0000000000
     42165       355  POPE      H14S           54.5017171387      -33.2156875486       -0.8454749594  MEMB      355             0.0000000000
     42166       355  POPE      C215           53.5359431121      -32.2351480904        0.7658413737  MEMB      355             0.0000000000
     42167       355  POPE      H15R           54.1920182429      -31.3859065368        0.4783080165  MEMB      355             0.0000000000
     42168       355  POPE      H15S           53.8874768107      -32.8015355108        1.6546338082  MEMB      355             0.0000000000
     42169       355  POPE      C216           52.1784075116      -31.6275954823        1.1280320336  MEMB      355             0.0000000000
     42170       355  POPE      H16R           51.7212696416      -31.0588568197        0.2902484090  MEMB      355             0.0000000000
     42171       355  POPE      H16S           52.4098801411      -30.9126975355        1.9463603262  MEMB      355             0.0000000000
     42172       355  POPE      C217           51.1516344560      -32.7308052516        1.5471118756  MEMB      355             0.0000000000
     42173       355  POPE      H17R           51.7167998938      -33.5423893768        2.0533144594  MEMB      355             0.0000000000
     42174       355  POPE      H17S           50.7279660422      -33.2316812081        0.6504797096  MEMB      355             0.0000000000
     42175       355  POPE      C218           49.9808181964      -32.1708939188        2.2637744293  MEMB      355             0.0000000000
     42176       355  POPE      H18R           49.5811136865      -32.9453025404        2.9528674460  MEMB      355             0.0000000000
     42177       355  POPE      H18S           49.1356444753      -31.9517996948        1.5767522676  MEMB      355             0.0000000000
     42178       355  POPE      H18T           50.2846700218      -31.2898536403        2.8685581658  MEMB      355             0.0000000000
     42179       355  POPE      C33            57.8868213511      -35.2302620544      -13.4595197117  MEMB      355             0.0000000000
     42180       355  POPE      H3X            58.8700392926      -35.0773873363      -13.9537187989  MEMB      355             0.0000000000
     42181       355  POPE      H3Y            57.8401439204      -36.3291392863      -13.3026418706  MEMB      355             0.0000000000
     42182       355  POPE      C34            57.6454528203      -34.4961360374      -12.1534182916  MEMB      355             0.0000000000
     42183       355  POPE      H4X            57.3615882155      -33.4587618586      -12.4319803454  MEMB      355             0.0000000000
     42184       355  POPE      H4Y            58.5739295439      -34.3711441427      -11.5562339684  MEMB      355             0.0000000000
     42185       355  POPE      C35            56.5130122653      -35.1004931992      -11.3495021764  MEMB      355             0.0000000000
     42186       355  POPE      H5X            56.7922275664      -36.1551528687      -11.1396142743  MEMB      355             0.0000000000
     42187       355  POPE      H5Y            55.5108781024      -35.0909094722      -11.8290397518  MEMB      355             0.0000000000
     42188       355  POPE      C36            56.3964647463      -34.5679322201       -9.9873041729  MEMB      355             0.0000000000
     42189       355  POPE      H6X            57.3517899561      -34.3577556899       -9.4605205968  MEMB      355             0.0000000000
     42190       355  POPE      H6Y            55.8785990924      -35.3500942393       -9.3920236587  MEMB      355             0.0000000000
     42191       355  POPE      C37            55.5088657202      -33.3249077536      -10.0912310980  MEMB      355             0.0000000000
     42192       355  POPE      H7X            54.6225275577      -33.5026059366      -10.7371023752  MEMB      355             0.0000000000
     42193       355  POPE      H7Y            56.0912915377      -32.5413341040      -10.6214332475  MEMB      355             0.0000000000
     42194       355  POPE      C38            55.0558679886      -32.6677045233       -8.8091809519  MEMB      355             0.0000000000
     42195       355  POPE      H8X            55.9432344986      -32.2187306900       -8.3138784888  MEMB      355             0.0000000000
     42196       355  POPE      H8Y            54.6579262234      -33.4028514814       -8.0773875073  MEMB      355             0.0000000000
     42197       355  POPE      C39            53.9886736574      -31.5514969406       -8.9056831461  MEMB      355             0.0000000000
     42198       355  POPE      H9X            53.4085791590      -31.6120642508       -7.9600918221  MEMB      355             0.0000000000
     42199       355  POPE      H9Y            53.2799824994      -31.7491208450       -9.7381626067  MEMB      355             0.0000000000
     42200       355  POPE      C310           54.3354161747      -30.0614274666       -9.0632349268  MEMB      355             0.0000000000
     42201       355  POPE      H10X           53.4947499854      -29.3506050601       -9.2126761569  MEMB      355             0.0000000000
     42202       355  POPE      H10Y           54.9117038139      -30.0228319651      -10.0122995111  MEMB      355             0.0000000000
     42203       355  POPE      C311           55.3773861403      -29.5342244017       -8.0393711884  MEMB      355             0.0000000000
     42204       355  POPE      H11X           55.4422678374      -28.4256506994       -8.0050842245  MEMB      355             0.0000000000
     42205       355  POPE      H11Y           56.3391249893      -30.0091438758       -8.3289063555  MEMB      355             0.0000000000
     42206       355  POPE      C312           55.2375206447      -29.9794955418       -6.6159301566  MEMB      355             0.0000000000
     42207       355  POPE      H12X           55.5064057569      -31.0398138770       -6.4216445257  MEMB      355             0.0000000000
     42208       355  POPE      H12Y           54.1565794409      -30.0315623591       -6.3645812679  MEMB      355             0.0000000000
     42209       355  POPE      C313           56.0420883499      -29.0699912222       -5.6780595788  MEMB      355             0.0000000000
     42210       355  POPE      H13X           55.9178059420      -27.9812548934       -5.8611659609  MEMB      355             0.0000000000
     42211       355  POPE      H13Y           57.1264480952      -29.2281621874       -5.8610001634  MEMB      355             0.0000000000
     42212       355  POPE      C314           55.8081035715      -29.3062458030       -4.1854949175  MEMB      355             0.0000000000
     42213       355  POPE      H14X           55.5798855781      -30.3850517370       -4.0497906243  MEMB      355             0.0000000000
     42214       355  POPE      H14Y           54.8769589662      -28.8329059003       -3.8070239744  MEMB      355             0.0000000000
     42215       355  POPE      C315           57.0365326515      -29.1139729879       -3.2529562737  MEMB      355             0.0000000000
     42216       355  POPE      H15X           57.3671029549      -28.0749091174       -3.4660074469  MEMB      355             0.0000000000
     42217       355  POPE      H15Y           57.8955998674      -29.7981226016       -3.4210752130  MEMB      355             0.0000000000
     42218       355  POPE      C316           56.8366062645      -29.1595760754       -1.6815501794  MEMB      355             0.0000000000
     42219       355  POPE      H16X           56.2774631918      -30.1078825044       -1.5319030922  MEMB      355             0.0000000000
     42220       355  POPE      H16Y           56.2675074978      -28.2720854525       -1.3311115483  MEMB      355             0.0000000000
     42221       355  POPE      H16Z           57.8450281120      -29.2187363017       -1.2190514222  MEMB      355             0.0000000000
     42222       356  POPE      N             -43.3146558988      -48.5862602825      -21.4167929332  MEMB      356             0.0000000000
     42223       356  POPE      HN1           -43.6836924271      -47.7756271350      -20.8798703662  MEMB      356             0.0000000000
     42224       356  POPE      HN2           -42.8565874812      -48.2258788890      -22.2781282659  MEMB      356             0.0000000000
     42225       356  POPE      HN3           -44.0285593700      -49.3129747514      -21.6261440930  MEMB      356             0.0000000000
     42226       356  POPE      C12           -42.3600880940      -49.3042500268      -20.5979199646  MEMB      356             0.0000000000
     42227       356  POPE      H12A          -41.3622952696      -49.0538590072      -21.0174850307  MEMB      356             0.0000000000
     42228       356  POPE      H12B          -42.5114119064      -50.4037699639      -20.6476981459  MEMB      356             0.0000000000
     42229       356  POPE      C11           -42.4167044937      -48.9412326172      -19.0393614198  MEMB      356             0.0000000000
     42230       356  POPE      H11A          -43.3745303487      -49.0506261302      -18.4871624544  MEMB      356             0.0000000000
     42231       356  POPE      H11B          -42.2154266630      -47.8486234943      -19.0430236950  MEMB      356             0.0000000000
     42232       356  POPE      P             -40.0558250595      -49.7119357112      -18.2482052514  MEMB      356             0.0000000000
     42233       356  POPE      O13           -39.6178544887      -48.6518269184      -19.2186454078  MEMB      356             0.0000000000
     42234       356  POPE      O14           -39.4144736806      -51.0426806800      -18.3910066901  MEMB      356             0.0000000000
     42235       356  POPE      O11           -39.9080757935      -49.2165455101      -16.7830891440  MEMB      356             0.0000000000
     42236       356  POPE      O12           -41.5982784831      -49.8602722573      -18.3049791840  MEMB      356             0.0000000000
     42237       356  POPE      C1            -40.6222251494      -48.0642387005      -16.4213065368  MEMB      356             0.0000000000
     42238       356  POPE      HA            -41.3168940098      -47.6676648014      -17.1923353550  MEMB      356             0.0000000000
     42239       356  POPE      HB            -39.8663919190      -47.2665185069      -16.2579684457  MEMB      356             0.0000000000
     42240       356  POPE      C2            -41.4821928052      -48.2138403115      -15.1682762056  MEMB      356             0.0000000000
     42241       356  POPE      HS            -41.5282136809      -47.1936161016      -14.7308455834  MEMB      356             0.0000000000
     42242       356  POPE      O21           -41.0118131878      -49.2052589514      -14.2458405671  MEMB      356             0.0000000000
     42243       356  POPE      C21           -40.0343813134      -48.8747727367      -13.4777213764  MEMB      356             0.0000000000
     42244       356  POPE      O22           -39.6299744438      -47.7592858845      -13.2575572155  MEMB      356             0.0000000000
     42245       356  POPE      C22           -39.4316520804      -50.1832271304      -12.9965654790  MEMB      356             0.0000000000
     42246       356  POPE      H2R           -38.8169110696      -50.5835581897      -13.8309213180  MEMB      356             0.0000000000
     42247       356  POPE      H2S           -40.3298326134      -50.8111720554      -12.8141433441  MEMB      356             0.0000000000
     42248       356  POPE      C3            -42.9382704622      -48.6324743758      -15.5099957743  MEMB      356             0.0000000000
     42249       356  POPE      HX            -42.7315826056      -49.6363286831      -15.9388054563  MEMB      356             0.0000000000
     42250       356  POPE      HY            -43.4734678982      -48.0992007337      -16.3245533089  MEMB      356             0.0000000000
     42251       356  POPE      O31           -43.7417310068      -48.6485875742      -14.3201091268  MEMB      356             0.0000000000
     42252       356  POPE      C31           -44.1063476961      -47.5325062947      -13.6972980899  MEMB      356             0.0000000000
     42253       356  POPE      O32           -43.8421978694      -46.4000679800      -13.9590365475  MEMB      356             0.0000000000
     42254       356  POPE      C32           -44.9282896431      -47.9936775059      -12.4688627492  MEMB      356             0.0000000000
     42255       356  POPE      H2X           -45.2277261653      -49.0508408401      -12.3043500031  MEMB      356             0.0000000000
     42256       356  POPE      H2Y           -45.8600039277      -47.3956846931      -12.5617814950  MEMB      356             0.0000000000
     42257       356  POPE      C23           -38.5166610269      -49.9544839607      -11.8397103286  MEMB      356             0.0000000000
     42258       356  POPE      H3R           -37.6791809567      -49.2871945114      -12.1358070209  MEMB      356             0.0000000000
     42259       356  POPE      H3S           -38.0109846482      -50.9075968433      -11.5747797370  MEMB      356             0.0000000000
     42260       356  POPE      C24           -39.3029949102      -49.4488314962      -10.5999271626  MEMB      356             0.0000000000
     42261       356  POPE      H4R           -40.1771735431      -50.1027536585      -10.3937273958  MEMB      356             0.0000000000
     42262       356  POPE      H4S           -39.5788819416      -48.3889588956      -10.7866821264  MEMB      356             0.0000000000
     42263       356  POPE      C25           -38.3922541167      -49.5236694510       -9.3735525860  MEMB      356             0.0000000000
     42264       356  POPE      H5R           -37.4750604912      -48.9443435293       -9.6132579242  MEMB      356             0.0000000000
     42265       356  POPE      H5S           -38.0999035911      -50.5893969889       -9.4879055141  MEMB      356             0.0000000000
     42266       356  POPE      C26           -39.0306182575      -49.2642494754       -7.9637844717  MEMB      356             0.0000000000
     42267       356  POPE      H6R           -39.4864898449      -48.2527780803       -7.9052385179  MEMB      356             0.0000000000
     42268       356  POPE      H6S           -38.0656891664      -49.2640291287       -7.4131188974  MEMB      356             0.0000000000
     42269       356  POPE      C27           -39.9855924742      -50.4403511954       -7.6012608915  MEMB      356             0.0000000000
     42270       356  POPE      H7R           -39.6806750471      -51.2982853043       -8.2378886911  MEMB      356             0.0000000000
     42271       356  POPE      H7S           -40.9491637514      -50.1338620649       -8.0616037038  MEMB      356             0.0000000000
     42272       356  POPE      C28           -40.2258404662      -50.6594841047       -6.0718700719  MEMB      356             0.0000000000
     42273       356  POPE      H8R           -40.4597394264      -49.7135151429       -5.5382458016  MEMB      356             0.0000000000
     42274       356  POPE      H8S           -39.2803866592      -51.0071962171       -5.6033250979  MEMB      356             0.0000000000
     42275       356  POPE      C29           -41.3365998439      -51.6090417726       -5.6995787717  MEMB      356             0.0000000000
     42276       356  POPE      H91           -41.1615700805      -52.0284124208       -4.6978345375  MEMB      356             0.0000000000
     42277       356  POPE      C210          -42.4996090364      -51.9878024871       -6.2490929519  MEMB      356             0.0000000000
     42278       356  POPE      H101          -43.0263339696      -52.7382311073       -5.6412951520  MEMB      356             0.0000000000
     42279       356  POPE      C211          -43.2657097268      -51.6424949919       -7.5198378631  MEMB      356             0.0000000000
     42280       356  POPE      H11R          -43.0203085383      -52.3338189934       -8.3542068646  MEMB      356             0.0000000000
     42281       356  POPE      H11S          -42.9047032782      -50.6192132540       -7.7583540258  MEMB      356             0.0000000000
     42282       356  POPE      C212          -44.8345022612      -51.6245705993       -7.2823284839  MEMB      356             0.0000000000
     42283       356  POPE      H12R          -45.1378765079      -52.6565431169       -7.0042680069  MEMB      356             0.0000000000
     42284       356  POPE      H12S          -45.2644284184      -51.3783875383       -8.2767523201  MEMB      356             0.0000000000
     42285       356  POPE      C213          -45.2638660963      -50.6899906131       -6.2451295830  MEMB      356             0.0000000000
     42286       356  POPE      H13R          -44.6696037876      -49.7543827170       -6.3213610026  MEMB      356             0.0000000000
     42287       356  POPE      H13S          -44.9619342348      -51.3022623611       -5.3686125763  MEMB      356             0.0000000000
     42288       356  POPE      C214          -46.8020418028      -50.4530478282       -6.1470487280  MEMB      356             0.0000000000
     42289       356  POPE      H14R          -47.3563329491      -51.4120141355       -6.2334554837  MEMB      356             0.0000000000
     42290       356  POPE      H14S          -46.9686185737      -49.9075253561       -7.1004526832  MEMB      356             0.0000000000
     42291       356  POPE      C215          -47.3528289499      -49.5487880429       -5.0688210482  MEMB      356             0.0000000000
     42292       356  POPE      H15R          -48.3641972984      -49.2416174026       -5.4110217853  MEMB      356             0.0000000000
     42293       356  POPE      H15S          -46.7917911196      -48.6059418662       -4.8938964958  MEMB      356             0.0000000000
     42294       356  POPE      C216          -47.4071000724      -50.1989409192       -3.6463398869  MEMB      356             0.0000000000
     42295       356  POPE      H16R          -46.3846064836      -50.6194257531       -3.5367024078  MEMB      356             0.0000000000
     42296       356  POPE      H16S          -48.0283195122      -51.1174819216       -3.5778602979  MEMB      356             0.0000000000
     42297       356  POPE      C217          -48.0006559403      -49.2874570089       -2.5986279513  MEMB      356             0.0000000000
     42298       356  POPE      H17R          -48.4936799613      -49.9664096868       -1.8704291512  MEMB      356             0.0000000000
     42299       356  POPE      H17S          -48.8357462978      -48.7141793674       -3.0550245946  MEMB      356             0.0000000000
     42300       356  POPE      C218          -46.8772593867      -48.5276873818       -1.9130658309  MEMB      356             0.0000000000
     42301       356  POPE      H18R          -47.1977086800      -48.1368053544       -0.9236993890  MEMB      356             0.0000000000
     42302       356  POPE      H18S          -46.4763016312      -47.6697013573       -2.4939387302  MEMB      356             0.0000000000
     42303       356  POPE      H18T          -46.0223196845      -49.2130842121       -1.7296800640  MEMB      356             0.0000000000
     42304       356  POPE      C33           -44.1189193974      -47.5224054151      -11.2350974420  MEMB      356             0.0000000000
     42305       356  POPE      H3X           -43.7414878737      -46.4782461926      -11.2750699458  MEMB      356             0.0000000000
     42306       356  POPE      H3Y           -43.2290358031      -48.1859611749      -11.1890310989  MEMB      356             0.0000000000
     42307       356  POPE      C34           -44.9088347779      -47.6626530186       -9.8753273204  MEMB      356             0.0000000000
     42308       356  POPE      H4X           -45.4072714278      -48.6529947485       -9.9467766933  MEMB      356             0.0000000000
     42309       356  POPE      H4Y           -45.6346820475      -46.8252998915       -9.7959126654  MEMB      356             0.0000000000
     42310       356  POPE      C35           -43.9686496116      -47.7906235652       -8.6492664334  MEMB      356             0.0000000000
     42311       356  POPE      H5X           -43.0877185717      -48.4348317197       -8.8572985319  MEMB      356             0.0000000000
     42312       356  POPE      H5Y           -44.5909606425      -48.3104645342       -7.8897819391  MEMB      356             0.0000000000
     42313       356  POPE      C36           -43.7202309876      -46.4287937245       -8.0184379307  MEMB      356             0.0000000000
     42314       356  POPE      H6X           -44.7217983455      -45.9557958948       -7.9320843743  MEMB      356             0.0000000000
     42315       356  POPE      H6Y           -43.1554402831      -45.7768869310       -8.7186870401  MEMB      356             0.0000000000
     42316       356  POPE      C37           -42.9991801388      -46.4715241688       -6.6658566429  MEMB      356             0.0000000000
     42317       356  POPE      H7X           -43.5775938666      -47.1515708585       -6.0045744348  MEMB      356             0.0000000000
     42318       356  POPE      H7Y           -43.1322495048      -45.5127911417       -6.1204716188  MEMB      356             0.0000000000
     42319       356  POPE      C38           -41.6391364818      -47.1363321099       -6.6852032588  MEMB      356             0.0000000000
     42320       356  POPE      H8X           -41.0566304916      -46.6536158056       -7.4988320731  MEMB      356             0.0000000000
     42321       356  POPE      H8Y           -41.6199315506      -48.2285763063       -6.8875757296  MEMB      356             0.0000000000
     42322       356  POPE      C39           -40.9200692588      -46.8296199363       -5.3873125611  MEMB      356             0.0000000000
     42323       356  POPE      H9X           -41.0930695437      -45.7532304517       -5.1733563815  MEMB      356             0.0000000000
     42324       356  POPE      H9Y           -39.8403155579      -47.0859260884       -5.4398468338  MEMB      356             0.0000000000
     42325       356  POPE      C310          -41.5967548907      -47.4629543353       -4.1411005985  MEMB      356             0.0000000000
     42326       356  POPE      H10X          -42.0949122768      -48.4049761010       -4.4553532575  MEMB      356             0.0000000000
     42327       356  POPE      H10Y          -42.4488938037      -46.7846575199       -3.9217974481  MEMB      356             0.0000000000
     42328       356  POPE      C311          -40.6911609003      -47.8462957198       -2.9850880719  MEMB      356             0.0000000000
     42329       356  POPE      H11X          -40.0545684906      -46.9402816323       -2.8944807606  MEMB      356             0.0000000000
     42330       356  POPE      H11Y          -40.0101361986      -48.6853250883       -3.2430729316  MEMB      356             0.0000000000
     42331       356  POPE      C312          -41.3553177364      -48.1672684416       -1.6007676946  MEMB      356             0.0000000000
     42332       356  POPE      H12X          -42.0363762027      -47.3234252300       -1.3590854855  MEMB      356             0.0000000000
     42333       356  POPE      H12Y          -40.4904816352      -48.2063500955       -0.9044532825  MEMB      356             0.0000000000
     42334       356  POPE      C313          -42.1486822117      -49.5124322194       -1.8318829699  MEMB      356             0.0000000000
     42335       356  POPE      H13X          -41.4044578937      -50.2329000908       -2.2335999085  MEMB      356             0.0000000000
     42336       356  POPE      H13Y          -43.0646166219      -49.3519503395       -2.4398555480  MEMB      356             0.0000000000
     42337       356  POPE      C314          -42.5755158664      -49.9552942930       -0.4621330473  MEMB      356             0.0000000000
     42338       356  POPE      H14X          -43.1656636762      -49.2328866273        0.1413370007  MEMB      356             0.0000000000
     42339       356  POPE      H14Y          -41.6678789218      -50.0021995106        0.1768634117  MEMB      356             0.0000000000
     42340       356  POPE      C315          -43.4108959328      -51.2390827918       -0.4329316949  MEMB      356             0.0000000000
     42341       356  POPE      H15X          -44.3745928223      -51.1259788138       -0.9740571535  MEMB      356             0.0000000000
     42342       356  POPE      H15Y          -43.7177066637      -51.4190577198        0.6195890930  MEMB      356             0.0000000000
     42343       356  POPE      C316          -42.7436275150      -52.4912620319       -0.9564282843  MEMB      356             0.0000000000
     42344       356  POPE      H16X          -42.0982987662      -52.7454950858       -0.0885353169  MEMB      356             0.0000000000
     42345       356  POPE      H16Y          -42.2991400456      -52.2312279694       -1.9408731115  MEMB      356             0.0000000000
     42346       356  POPE      H16Z          -43.5148541561      -53.2765843900       -1.1074225808  MEMB      356             0.0000000000
     42347       357  POPE      N             -52.9238557195      -43.2468166753      -20.0216214322  MEMB      357             0.0000000000
     42348       357  POPE      HN1           -53.4811831603      -42.8208312555      -20.7894252591  MEMB      357             0.0000000000
     42349       357  POPE      HN2           -52.0169061104      -43.4604919932      -20.4835576266  MEMB      357             0.0000000000
     42350       357  POPE      HN3           -53.3632670778      -44.1365346099      -19.7103018602  MEMB      357             0.0000000000
     42351       357  POPE      C12           -52.7586771230      -42.2030830513      -18.9167331923  MEMB      357             0.0000000000
     42352       357  POPE      H12A          -51.8670420234      -42.5778938907      -18.3700847389  MEMB      357             0.0000000000
     42353       357  POPE      H12B          -53.6776775125      -42.1294858884      -18.2967792105  MEMB      357             0.0000000000
     42354       357  POPE      C11           -52.3489827614      -40.8726670004      -19.5209706389  MEMB      357             0.0000000000
     42355       357  POPE      H11A          -53.1061298043      -40.6621441477      -20.3062919178  MEMB      357             0.0000000000
     42356       357  POPE      H11B          -51.3077282179      -40.8339671148      -19.9064733398  MEMB      357             0.0000000000
     42357       357  POPE      P             -51.6860159063      -38.5166159399      -18.7295234227  MEMB      357             0.0000000000
     42358       357  POPE      O13           -52.5183032014      -37.5582732303      -17.9857968748  MEMB      357             0.0000000000
     42359       357  POPE      O14           -51.6220405504      -38.3664594066      -20.2309889418  MEMB      357             0.0000000000
     42360       357  POPE      O11           -50.2672202034      -38.5799880366      -18.1488308418  MEMB      357             0.0000000000
     42361       357  POPE      O12           -52.3350581352      -39.9097630600      -18.4455346573  MEMB      357             0.0000000000
     42362       357  POPE      C1            -49.5637680430      -39.6740624878      -17.5218968132  MEMB      357             0.0000000000
     42363       357  POPE      HA            -48.4836003578      -39.4988108386      -17.7138488660  MEMB      357             0.0000000000
     42364       357  POPE      HB            -49.7991450035      -40.7224927829      -17.8042311527  MEMB      357             0.0000000000
     42365       357  POPE      C2            -49.7528265850      -39.6382609888      -16.0353590394  MEMB      357             0.0000000000
     42366       357  POPE      HS            -49.0395692441      -40.4001244979      -15.6543750610  MEMB      357             0.0000000000
     42367       357  POPE      O21           -51.1074006095      -39.9876482388      -15.8138840571  MEMB      357             0.0000000000
     42368       357  POPE      C21           -51.3860288440      -40.9870746768      -15.0975064367  MEMB      357             0.0000000000
     42369       357  POPE      O22           -50.5383451758      -41.6744574160      -14.5507917253  MEMB      357             0.0000000000
     42370       357  POPE      C22           -52.8852812418      -41.3224451166      -15.1433736440  MEMB      357             0.0000000000
     42371       357  POPE      H2R           -53.1801636343      -41.4530076252      -16.2065383437  MEMB      357             0.0000000000
     42372       357  POPE      H2S           -53.5151168132      -40.5870805876      -14.5985183452  MEMB      357             0.0000000000
     42373       357  POPE      C3            -49.5073090264      -38.2287445059      -15.4255567082  MEMB      357             0.0000000000
     42374       357  POPE      HX            -50.1046936142      -37.3938447499      -15.8502860449  MEMB      357             0.0000000000
     42375       357  POPE      HY            -48.4813186823      -37.8713746102      -15.6578317477  MEMB      357             0.0000000000
     42376       357  POPE      O31           -49.7836774484      -38.2936384071      -14.0455935855  MEMB      357             0.0000000000
     42377       357  POPE      C31           -48.7718503365      -38.8477101797      -13.3009464544  MEMB      357             0.0000000000
     42378       357  POPE      O32           -47.6494543215      -38.9960601389      -13.7870098263  MEMB      357             0.0000000000
     42379       357  POPE      C32           -49.1548174089      -39.2371987470      -11.9038332561  MEMB      357             0.0000000000
     42380       357  POPE      H2X           -50.2549643265      -39.1905823702      -11.7561016917  MEMB      357             0.0000000000
     42381       357  POPE      H2Y           -48.6045860830      -38.5306538315      -11.2462915068  MEMB      357             0.0000000000
     42382       357  POPE      C23           -53.1291217038      -42.6899306773      -14.2856941219  MEMB      357             0.0000000000
     42383       357  POPE      H3R           -52.3361111473      -43.4373905612      -14.5019319254  MEMB      357             0.0000000000
     42384       357  POPE      H3S           -54.0885139727      -43.1033766881      -14.6637810765  MEMB      357             0.0000000000
     42385       357  POPE      C24           -53.0009281016      -42.4808179819      -12.7839337083  MEMB      357             0.0000000000
     42386       357  POPE      H4R           -51.9310726347      -42.6428744902      -12.5320056674  MEMB      357             0.0000000000
     42387       357  POPE      H4S           -53.6746714721      -43.2853306487      -12.4190364666  MEMB      357             0.0000000000
     42388       357  POPE      C25           -53.5725400498      -41.2187926682      -12.2192088413  MEMB      357             0.0000000000
     42389       357  POPE      H5R           -54.6775092979      -41.2150278548      -12.3347500853  MEMB      357             0.0000000000
     42390       357  POPE      H5S           -52.9808563389      -40.4055463562      -12.6912910753  MEMB      357             0.0000000000
     42391       357  POPE      C26           -53.2956527903      -40.9617954444      -10.6482785658  MEMB      357             0.0000000000
     42392       357  POPE      H6R           -54.0267072274      -40.2095039487      -10.2823030450  MEMB      357             0.0000000000
     42393       357  POPE      H6S           -52.2857887554      -40.5282555435      -10.4853705997  MEMB      357             0.0000000000
     42394       357  POPE      C27           -53.6143104129      -42.1134807119       -9.6561346538  MEMB      357             0.0000000000
     42395       357  POPE      H7R           -52.9382573744      -42.9800439373       -9.8184334562  MEMB      357             0.0000000000
     42396       357  POPE      H7S           -54.6427827244      -42.4576712258       -9.8971724705  MEMB      357             0.0000000000
     42397       357  POPE      C28           -53.5166443926      -41.7824144027       -8.1434439123  MEMB      357             0.0000000000
     42398       357  POPE      H8R           -52.5125657078      -41.3249805684       -8.0134387575  MEMB      357             0.0000000000
     42399       357  POPE      H8S           -53.6607805601      -42.7581726662       -7.6321299869  MEMB      357             0.0000000000
     42400       357  POPE      C29           -54.6280351708      -40.8479963813       -7.7035975879  MEMB      357             0.0000000000
     42401       357  POPE      H91           -55.6259738159      -41.2988309830       -7.5993565908  MEMB      357             0.0000000000
     42402       357  POPE      C210          -54.6014443548      -39.5050211807       -7.3376422582  MEMB      357             0.0000000000
     42403       357  POPE      H101          -55.6212519410      -39.1415320556       -7.1430451791  MEMB      357             0.0000000000
     42404       357  POPE      C211          -53.4615526228      -38.5245610770       -7.2283271303  MEMB      357             0.0000000000
     42405       357  POPE      H11R          -53.5765117942      -37.7169360695       -7.9825464921  MEMB      357             0.0000000000
     42406       357  POPE      H11S          -52.5089378927      -39.0160694769       -7.5203290938  MEMB      357             0.0000000000
     42407       357  POPE      C212          -53.2772222082      -38.0868335129       -5.7336267580  MEMB      357             0.0000000000
     42408       357  POPE      H12R          -54.1806987233      -37.6243918203       -5.2817429145  MEMB      357             0.0000000000
     42409       357  POPE      H12S          -52.5125030713      -37.2817106943       -5.7697243335  MEMB      357             0.0000000000
     42410       357  POPE      C213          -52.8114579875      -39.1327794662       -4.7225408407  MEMB      357             0.0000000000
     42411       357  POPE      H13R          -53.6084624799      -39.8432506598       -4.4154002451  MEMB      357             0.0000000000
     42412       357  POPE      H13S          -52.4546824975      -38.5470974613       -3.8484649718  MEMB      357             0.0000000000
     42413       357  POPE      C214          -51.5557657116      -39.8746061169       -5.2704409325  MEMB      357             0.0000000000
     42414       357  POPE      H14R          -50.8365797700      -39.3092981494       -5.9009324161  MEMB      357             0.0000000000
     42415       357  POPE      H14S          -51.8407019508      -40.7694698045       -5.8640334858  MEMB      357             0.0000000000
     42416       357  POPE      C215          -50.5857611958      -40.3300381379       -4.0950994187  MEMB      357             0.0000000000
     42417       357  POPE      H15R          -50.8150177042      -39.6037200110       -3.2862577277  MEMB      357             0.0000000000
     42418       357  POPE      H15S          -49.5200544027      -40.2438358140       -4.3970247343  MEMB      357             0.0000000000
     42419       357  POPE      C216          -50.6647782303      -41.7813208598       -3.6132025522  MEMB      357             0.0000000000
     42420       357  POPE      H16R          -49.7505548862      -42.0344716411       -3.0349017053  MEMB      357             0.0000000000
     42421       357  POPE      H16S          -50.7702575861      -42.5312431222       -4.4261060191  MEMB      357             0.0000000000
     42422       357  POPE      C217          -51.9068041713      -41.8736739472       -2.7120920066  MEMB      357             0.0000000000
     42423       357  POPE      H17R          -52.2232297739      -42.9182509711       -2.5045952843  MEMB      357             0.0000000000
     42424       357  POPE      H17S          -52.7602577378      -41.4131045822       -3.2541384912  MEMB      357             0.0000000000
     42425       357  POPE      C218          -51.7838028318      -41.1648957793       -1.3085773819  MEMB      357             0.0000000000
     42426       357  POPE      H18R          -50.7833446990      -41.3559612912       -0.8648449125  MEMB      357             0.0000000000
     42427       357  POPE      H18S          -52.5489623717      -41.5536526017       -0.6030847823  MEMB      357             0.0000000000
     42428       357  POPE      H18T          -51.9322149292      -40.0926337498       -1.5586764963  MEMB      357             0.0000000000
     42429       357  POPE      C33           -48.6427972296      -40.6757414340      -11.5121027510  MEMB      357             0.0000000000
     42430       357  POPE      H3X           -47.5344931286      -40.7177613932      -11.5770439621  MEMB      357             0.0000000000
     42431       357  POPE      H3Y           -49.0440573907      -41.3139940875      -12.3281574881  MEMB      357             0.0000000000
     42432       357  POPE      C34           -49.1973073048      -41.1952930694      -10.1622176152  MEMB      357             0.0000000000
     42433       357  POPE      H4X           -48.6776277375      -42.1111623090       -9.8080470388  MEMB      357             0.0000000000
     42434       357  POPE      H4Y           -50.2505956736      -41.5377626991      -10.2495058123  MEMB      357             0.0000000000
     42435       357  POPE      C35           -49.1780069421      -40.1589011200       -9.0836272361  MEMB      357             0.0000000000
     42436       357  POPE      H5X           -49.7706323465      -40.4732976448       -8.1980364261  MEMB      357             0.0000000000
     42437       357  POPE      H5Y           -49.7462638837      -39.2751193749       -9.4446457881  MEMB      357             0.0000000000
     42438       357  POPE      C36           -47.7321431220      -39.7509663320       -8.6255412623  MEMB      357             0.0000000000
     42439       357  POPE      H6X           -47.1872017845      -39.5608737484       -9.5748706671  MEMB      357             0.0000000000
     42440       357  POPE      H6Y           -47.3082406796      -40.6706718404       -8.1686286227  MEMB      357             0.0000000000
     42441       357  POPE      C37           -47.7987016509      -38.6353202491       -7.6596997938  MEMB      357             0.0000000000
     42442       357  POPE      H7X           -46.7561675746      -38.4019257281       -7.3547887317  MEMB      357             0.0000000000
     42443       357  POPE      H7Y           -48.4235067536      -38.8737086255       -6.7725065232  MEMB      357             0.0000000000
     42444       357  POPE      C38           -48.4020954437      -37.3704731208       -8.2750064201  MEMB      357             0.0000000000
     42445       357  POPE      H8X           -49.5096100576      -37.4574708200       -8.2878117145  MEMB      357             0.0000000000
     42446       357  POPE      H8Y           -48.0661493294      -37.2130527474       -9.3222314763  MEMB      357             0.0000000000
     42447       357  POPE      C39           -48.1160306412      -36.1552948811       -7.3604238373  MEMB      357             0.0000000000
     42448       357  POPE      H9X           -47.0844712887      -36.0357280244       -7.7552785148  MEMB      357             0.0000000000
     42449       357  POPE      H9Y           -48.0715166233      -36.3952531397       -6.2765612220  MEMB      357             0.0000000000
     42450       357  POPE      C310          -49.0562456007      -34.9863136093       -7.6853974110  MEMB      357             0.0000000000
     42451       357  POPE      H10X          -49.3439539455      -34.9967542812       -8.7584465369  MEMB      357             0.0000000000
     42452       357  POPE      H10Y          -48.4934990036      -34.0556297725       -7.4585374727  MEMB      357             0.0000000000
     42453       357  POPE      C311          -50.3488165182      -34.8275827982       -6.8926243318  MEMB      357             0.0000000000
     42454       357  POPE      H11X          -50.9870993984      -35.7296150164       -7.0077518101  MEMB      357             0.0000000000
     42455       357  POPE      H11Y          -50.9264700862      -33.9171332491       -7.1604283930  MEMB      357             0.0000000000
     42456       357  POPE      C312          -49.9262261824      -34.5391444580       -5.4130499609  MEMB      357             0.0000000000
     42457       357  POPE      H12X          -49.0936442383      -33.8113140182       -5.3063218695  MEMB      357             0.0000000000
     42458       357  POPE      H12Y          -49.5162389331      -35.4621526036       -4.9501374530  MEMB      357             0.0000000000
     42459       357  POPE      C313          -51.1898827377      -34.1082983105       -4.6401562562  MEMB      357             0.0000000000
     42460       357  POPE      H13X          -51.8873171573      -34.9699600522       -4.7139480625  MEMB      357             0.0000000000
     42461       357  POPE      H13Y          -51.6719796848      -33.2227571126       -5.1067612480  MEMB      357             0.0000000000
     42462       357  POPE      C314          -50.9880023368      -33.7996421505       -3.1632316358  MEMB      357             0.0000000000
     42463       357  POPE      H14X          -50.1348599206      -33.1080471276       -2.9954060897  MEMB      357             0.0000000000
     42464       357  POPE      H14Y          -50.7386449298      -34.7583395701       -2.6601994571  MEMB      357             0.0000000000
     42465       357  POPE      C315          -52.2203099570      -33.1914284399       -2.4406058437  MEMB      357             0.0000000000
     42466       357  POPE      H15X          -53.1044195460      -33.8642243962       -2.4446758969  MEMB      357             0.0000000000
     42467       357  POPE      H15Y          -52.5121528247      -32.3045205096       -3.0427210038  MEMB      357             0.0000000000
     42468       357  POPE      C316          -51.9464151428      -32.8222465513       -0.9908985639  MEMB      357             0.0000000000
     42469       357  POPE      H16X          -51.9638236929      -33.7260859732       -0.3450709503  MEMB      357             0.0000000000
     42470       357  POPE      H16Y          -52.5479346595      -31.9814478949       -0.5840173108  MEMB      357             0.0000000000
     42471       357  POPE      H16Z          -50.9365208262      -32.3659387591       -0.9120454917  MEMB      357             0.0000000000
     42472       358  POPE      N              49.2589590153      -53.9368203059      -18.0795121646  MEMB      358             0.0000000000
     42473       358  POPE      HN1            50.2492003700      -53.6432311004      -18.2012800308  MEMB      358             0.0000000000
     42474       358  POPE      HN2            49.1863113906      -54.8655238021      -17.6170921890  MEMB      358             0.0000000000
     42475       358  POPE      HN3            48.7239493514      -53.9604993092      -18.9710298866  MEMB      358             0.0000000000
     42476       358  POPE      C12            48.5342435303      -52.8960913565      -17.3038338112  MEMB      358             0.0000000000
     42477       358  POPE      H12A           49.2539787771      -52.4150676075      -16.6074729215  MEMB      358             0.0000000000
     42478       358  POPE      H12B           47.8032405968      -53.4957842368      -16.7204605764  MEMB      358             0.0000000000
     42479       358  POPE      C11            47.9400266378      -51.7522696870      -18.1402469974  MEMB      358             0.0000000000
     42480       358  POPE      H11A           48.7122417856      -51.0562498880      -18.5321159512  MEMB      358             0.0000000000
     42481       358  POPE      H11B           47.3407428659      -51.0712349339      -17.4988643682  MEMB      358             0.0000000000
     42482       358  POPE      P              45.9858241318      -51.4471983649      -19.8263516984  MEMB      358             0.0000000000
     42483       358  POPE      O13            45.3682267896      -52.1004127089      -20.9660751595  MEMB      358             0.0000000000
     42484       358  POPE      O14            46.4868936369      -50.0462895192      -19.8313298443  MEMB      358             0.0000000000
     42485       358  POPE      O11            44.9865330456      -51.4758035263      -18.6089130762  MEMB      358             0.0000000000
     42486       358  POPE      O12            47.1441348116      -52.3346825277      -19.2437372523  MEMB      358             0.0000000000
     42487       358  POPE      C1             44.6599798682      -52.6125123845      -17.7718283123  MEMB      358             0.0000000000
     42488       358  POPE      HA             45.6005465210      -53.1900724315      -17.6450217245  MEMB      358             0.0000000000
     42489       358  POPE      HB             43.9770888981      -53.2344276555      -18.3892438731  MEMB      358             0.0000000000
     42490       358  POPE      C2             44.0752407210      -52.0328577690      -16.4807973511  MEMB      358             0.0000000000
     42491       358  POPE      HS             43.3062981822      -51.2614020840      -16.6996683071  MEMB      358             0.0000000000
     42492       358  POPE      O21            45.1530299105      -51.4105777832      -15.7666119234  MEMB      358             0.0000000000
     42493       358  POPE      C21            44.8724796783      -50.6158545214      -14.7654556104  MEMB      358             0.0000000000
     42494       358  POPE      O22            43.7370765294      -50.3434272216      -14.4656492457  MEMB      358             0.0000000000
     42495       358  POPE      C22            46.0213329097      -49.9894639145      -14.1498519017  MEMB      358             0.0000000000
     42496       358  POPE      H2R            46.4873137666      -49.1238664970      -14.6674657865  MEMB      358             0.0000000000
     42497       358  POPE      H2S            46.8230071370      -50.7263877272      -13.9294367127  MEMB      358             0.0000000000
     42498       358  POPE      C3             43.3218785207      -53.1703494076      -15.6284732231  MEMB      358             0.0000000000
     42499       358  POPE      HX             42.3850647086      -53.5125067852      -16.1179925122  MEMB      358             0.0000000000
     42500       358  POPE      HY             43.1004137100      -52.7569995419      -14.6212907934  MEMB      358             0.0000000000
     42501       358  POPE      O31            44.2619096338      -54.1967757513      -15.3065759018  MEMB      358             0.0000000000
     42502       358  POPE      C31            43.8131113549      -55.4209866904      -14.9728238140  MEMB      358             0.0000000000
     42503       358  POPE      O32            42.6606323151      -55.8103984168      -15.0180550297  MEMB      358             0.0000000000
     42504       358  POPE      C32            44.9676075307      -56.2526982822      -14.4956192584  MEMB      358             0.0000000000
     42505       358  POPE      H2X            45.9271983382      -55.7140156328      -14.6483526309  MEMB      358             0.0000000000
     42506       358  POPE      H2Y            45.0219482548      -57.2624854034      -14.9557262718  MEMB      358             0.0000000000
     42507       358  POPE      C23            45.6697258896      -49.4795833867      -12.7291610299  MEMB      358             0.0000000000
     42508       358  POPE      H3R            45.0467315535      -50.2576314544      -12.2384062819  MEMB      358             0.0000000000
     42509       358  POPE      H3S            45.0505542996      -48.5580154826      -12.7699108182  MEMB      358             0.0000000000
     42510       358  POPE      C24            46.8906799856      -49.0375431673      -11.8612135702  MEMB      358             0.0000000000
     42511       358  POPE      H4R            47.2588598907      -48.0796474831      -12.2868902569  MEMB      358             0.0000000000
     42512       358  POPE      H4S            47.7271239303      -49.7682653475      -11.8881889784  MEMB      358             0.0000000000
     42513       358  POPE      C25            46.5848724031      -48.6813888577      -10.3983642749  MEMB      358             0.0000000000
     42514       358  POPE      H5R            45.7323295992      -47.9714278063      -10.3396494507  MEMB      358             0.0000000000
     42515       358  POPE      H5S            47.4017534511      -47.9996137579      -10.0786627471  MEMB      358             0.0000000000
     42516       358  POPE      C26            46.3683084914      -49.9457897339       -9.5411321473  MEMB      358             0.0000000000
     42517       358  POPE      H6R            47.3111627696      -50.3310752051       -9.0973959063  MEMB      358             0.0000000000
     42518       358  POPE      H6S            46.0151511660      -50.7174100590      -10.2582117491  MEMB      358             0.0000000000
     42519       358  POPE      C27            45.2079682988      -49.6286748140       -8.4756220950  MEMB      358             0.0000000000
     42520       358  POPE      H7R            44.3270633699      -49.2282509832       -9.0215060768  MEMB      358             0.0000000000
     42521       358  POPE      H7S            45.5627782693      -48.8326377478       -7.7865967203  MEMB      358             0.0000000000
     42522       358  POPE      C28            44.7472911456      -50.9118434919       -7.7633183555  MEMB      358             0.0000000000
     42523       358  POPE      H8R            43.9825656572      -50.6076381338       -7.0170102007  MEMB      358             0.0000000000
     42524       358  POPE      H8S            45.6735962153      -51.3287824797       -7.3133833127  MEMB      358             0.0000000000
     42525       358  POPE      C29            44.1200050026      -52.0021055907       -8.5554075274  MEMB      358             0.0000000000
     42526       358  POPE      H91            44.1945814675      -52.0024754880       -9.6528764267  MEMB      358             0.0000000000
     42527       358  POPE      C210           43.4803043169      -53.0582874515       -8.0389714136  MEMB      358             0.0000000000
     42528       358  POPE      H101           43.1892548170      -53.9205548854       -8.6568586884  MEMB      358             0.0000000000
     42529       358  POPE      C211           43.1850618314      -53.4241820402       -6.5637748551  MEMB      358             0.0000000000
     42530       358  POPE      H11R           42.4686626164      -54.2728147256       -6.5940386088  MEMB      358             0.0000000000
     42531       358  POPE      H11S           42.7764102456      -52.5686129697       -5.9847008996  MEMB      358             0.0000000000
     42532       358  POPE      C212           44.4314560848      -54.0159190855       -5.8550614867  MEMB      358             0.0000000000
     42533       358  POPE      H12R           45.2482179162      -53.2782325636       -5.7032720633  MEMB      358             0.0000000000
     42534       358  POPE      H12S           44.6629235805      -55.0174259232       -6.2766390205  MEMB      358             0.0000000000
     42535       358  POPE      C213           44.0171944256      -54.3156735485       -4.3652671783  MEMB      358             0.0000000000
     42536       358  POPE      H13R           43.3132694823      -55.1751079199       -4.3517444734  MEMB      358             0.0000000000
     42537       358  POPE      H13S           43.4813458562      -53.3809568469       -4.0941726828  MEMB      358             0.0000000000
     42538       358  POPE      C214           45.1475629136      -54.6373352414       -3.3693685607  MEMB      358             0.0000000000
     42539       358  POPE      H14R           45.3977147130      -55.6970706191       -3.5900633662  MEMB      358             0.0000000000
     42540       358  POPE      H14S           44.7543063330      -54.7532380354       -2.3367818397  MEMB      358             0.0000000000
     42541       358  POPE      C215           46.3571310861      -53.7286618534       -3.3483616785  MEMB      358             0.0000000000
     42542       358  POPE      H15R           46.8212829300      -53.6310981268       -4.3530333214  MEMB      358             0.0000000000
     42543       358  POPE      H15S           47.0342786814      -54.2239611017       -2.6200282662  MEMB      358             0.0000000000
     42544       358  POPE      C216           46.1287553948      -52.3139388560       -2.7553307530  MEMB      358             0.0000000000
     42545       358  POPE      H16R           45.3515590912      -52.3547183071       -1.9624738216  MEMB      358             0.0000000000
     42546       358  POPE      H16S           45.8066144024      -51.6474121525       -3.5837571297  MEMB      358             0.0000000000
     42547       358  POPE      C217           47.4490432031      -51.5348761937       -2.3431184273  MEMB      358             0.0000000000
     42548       358  POPE      H17R           48.0568979100      -51.5025104757       -3.2725200917  MEMB      358             0.0000000000
     42549       358  POPE      H17S           47.9911432514      -52.0644193893       -1.5306952912  MEMB      358             0.0000000000
     42550       358  POPE      C218           47.1851406217      -50.0425829653       -1.9324654033  MEMB      358             0.0000000000
     42551       358  POPE      H18R           48.1609474679      -49.5126491818       -1.8965175544  MEMB      358             0.0000000000
     42552       358  POPE      H18S           46.7305628529      -49.8958217113       -0.9293994577  MEMB      358             0.0000000000
     42553       358  POPE      H18T           46.6012057080      -49.4367089539       -2.6579006699  MEMB      358             0.0000000000
     42554       358  POPE      C33            44.7094640070      -56.3822448802      -12.9978519061  MEMB      358             0.0000000000
     42555       358  POPE      H3X            45.3236539503      -57.2449403358      -12.6619231948  MEMB      358             0.0000000000
     42556       358  POPE      H3Y            43.6934047693      -56.7026520495      -12.6827585036  MEMB      358             0.0000000000
     42557       358  POPE      C34            45.0786828092      -55.0540604621      -12.2794876618  MEMB      358             0.0000000000
     42558       358  POPE      H4X            44.2714795992      -54.2978343388      -12.3837270857  MEMB      358             0.0000000000
     42559       358  POPE      H4Y            46.0255201499      -54.6253068032      -12.6719038809  MEMB      358             0.0000000000
     42560       358  POPE      C35            45.2427738165      -55.2454740090      -10.7571240194  MEMB      358             0.0000000000
     42561       358  POPE      H5X            44.3138515988      -55.6489126086      -10.3003293621  MEMB      358             0.0000000000
     42562       358  POPE      H5Y            45.4001589116      -54.3021078693      -10.1917818047  MEMB      358             0.0000000000
     42563       358  POPE      C36            46.4837594089      -56.2260763263      -10.4067587806  MEMB      358             0.0000000000
     42564       358  POPE      H6X            47.3107866632      -55.9479162856      -11.0944900790  MEMB      358             0.0000000000
     42565       358  POPE      H6Y            46.2494476976      -57.2930588822      -10.6091629532  MEMB      358             0.0000000000
     42566       358  POPE      C37            46.9624262426      -56.0744553027       -8.9233283901  MEMB      358             0.0000000000
     42567       358  POPE      H7X            47.7340380528      -56.8042850125       -8.5973136939  MEMB      358             0.0000000000
     42568       358  POPE      H7Y            46.1505327287      -56.3241077116       -8.2072111039  MEMB      358             0.0000000000
     42569       358  POPE      C38            47.6075396549      -54.7261681446       -8.6958724981  MEMB      358             0.0000000000
     42570       358  POPE      H8X            46.8035347781      -54.0427238245       -8.3483085868  MEMB      358             0.0000000000
     42571       358  POPE      H8Y            47.9899211864      -54.4727083925       -9.7077345454  MEMB      358             0.0000000000
     42572       358  POPE      C39            48.6268286398      -54.7302566672       -7.6488797043  MEMB      358             0.0000000000
     42573       358  POPE      H9X            49.5108278630      -55.3302207291       -7.9536902044  MEMB      358             0.0000000000
     42574       358  POPE      H9Y            48.0768414325      -55.0903854291       -6.7532553623  MEMB      358             0.0000000000
     42575       358  POPE      C310           49.3008437641      -53.3125776986       -7.2847475360  MEMB      358             0.0000000000
     42576       358  POPE      H10X           48.4444741092      -52.6482357210       -7.0406122837  MEMB      358             0.0000000000
     42577       358  POPE      H10Y           49.9760404908      -52.9162907270       -8.0730277873  MEMB      358             0.0000000000
     42578       358  POPE      C311           50.1078074297      -53.3890038260       -5.9848515156  MEMB      358             0.0000000000
     42579       358  POPE      H11X           50.9167682524      -54.1401479981       -6.1100938593  MEMB      358             0.0000000000
     42580       358  POPE      H11Y           49.3960542760      -53.7403460669       -5.2074926728  MEMB      358             0.0000000000
     42581       358  POPE      C312           50.6300724578      -52.0077564693       -5.6065232617  MEMB      358             0.0000000000
     42582       358  POPE      H12X           49.7515178857      -51.3857784798       -5.3315569864  MEMB      358             0.0000000000
     42583       358  POPE      H12Y           51.1423776437      -51.5878884747       -6.4984728818  MEMB      358             0.0000000000
     42584       358  POPE      C313           51.7110159038      -52.0208161684       -4.4613791532  MEMB      358             0.0000000000
     42585       358  POPE      H13X           52.2157595140      -51.0335943925       -4.3910424685  MEMB      358             0.0000000000
     42586       358  POPE      H13Y           52.4003866243      -52.8873378156       -4.5520949161  MEMB      358             0.0000000000
     42587       358  POPE      C314           51.1078642888      -52.1861359240       -2.9805435481  MEMB      358             0.0000000000
     42588       358  POPE      H14X           50.5057067158      -53.1085635695       -3.1249552556  MEMB      358             0.0000000000
     42589       358  POPE      H14Y           50.3761889136      -51.4084281251       -2.6737169013  MEMB      358             0.0000000000
     42590       358  POPE      C315           52.1672843462      -52.5469945808       -1.8801714643  MEMB      358             0.0000000000
     42591       358  POPE      H15X           53.0294064510      -51.8803430852       -2.0961388165  MEMB      358             0.0000000000
     42592       358  POPE      H15Y           52.4257220193      -53.6232600970       -1.9760046074  MEMB      358             0.0000000000
     42593       358  POPE      C316           51.6047095620      -52.4205253249       -0.5386281586  MEMB      358             0.0000000000
     42594       358  POPE      H16X           52.0283491335      -53.2214193642        0.1043487627  MEMB      358             0.0000000000
     42595       358  POPE      H16Y           50.5086469706      -52.4734501625       -0.7123142827  MEMB      358             0.0000000000
     42596       358  POPE      H16Z           51.8886106324      -51.4452371492       -0.0885901292  MEMB      358             0.0000000000
     42597       359  POPE      N             -51.0594515671      -45.4172766964      -18.7853642272  MEMB      359             0.0000000000
     42598       359  POPE      HN1           -51.2345414663      -44.9584338394      -19.7021012985  MEMB      359             0.0000000000
     42599       359  POPE      HN2           -51.5659861635      -46.3243968819      -18.7389368776  MEMB      359             0.0000000000
     42600       359  POPE      HN3           -51.2940903573      -44.7439999750      -18.0282360439  MEMB      359             0.0000000000
     42601       359  POPE      C12           -49.5738764897      -45.6754318470      -18.7378938100  MEMB      359             0.0000000000
     42602       359  POPE      H12A          -49.4213411351      -46.0830301770      -17.7156818115  MEMB      359             0.0000000000
     42603       359  POPE      H12B          -49.0471780411      -44.6998471399      -18.6661698284  MEMB      359             0.0000000000
     42604       359  POPE      C11           -48.9224424121      -46.4799559147      -19.8900362241  MEMB      359             0.0000000000
     42605       359  POPE      H11A          -47.8297028958      -46.4868470593      -19.6895516062  MEMB      359             0.0000000000
     42606       359  POPE      H11B          -49.2049634506      -45.9745688127      -20.8382380629  MEMB      359             0.0000000000
     42607       359  POPE      P             -49.1120951134      -48.9843916249      -18.9009259145  MEMB      359             0.0000000000
     42608       359  POPE      O13           -48.7142423856      -50.2425021109      -19.6098345232  MEMB      359             0.0000000000
     42609       359  POPE      O14           -50.2582627441      -49.1041002226      -18.0064804472  MEMB      359             0.0000000000
     42610       359  POPE      O11           -47.8348487652      -48.4489103552      -18.0221356286  MEMB      359             0.0000000000
     42611       359  POPE      O12           -49.3484965230      -47.8250192287      -20.0473292507  MEMB      359             0.0000000000
     42612       359  POPE      C1            -46.5186565640      -48.4907219871      -18.6411854056  MEMB      359             0.0000000000
     42613       359  POPE      HA            -46.3546958983      -47.7187831845      -19.4232010368  MEMB      359             0.0000000000
     42614       359  POPE      HB            -46.4247446722      -49.5126983407      -19.0667038102  MEMB      359             0.0000000000
     42615       359  POPE      C2            -45.4270027339      -48.5084552341      -17.5333834396  MEMB      359             0.0000000000
     42616       359  POPE      HS            -44.7045166077      -49.3030951084      -17.8177817850  MEMB      359             0.0000000000
     42617       359  POPE      O21           -45.9317197468      -48.7520020727      -16.2542357892  MEMB      359             0.0000000000
     42618       359  POPE      C21           -46.2876821780      -50.0058764157      -16.0845136784  MEMB      359             0.0000000000
     42619       359  POPE      O22           -46.2152250119      -50.8420062708      -16.9372843058  MEMB      359             0.0000000000
     42620       359  POPE      C22           -47.0341487108      -50.0727015192      -14.7775013011  MEMB      359             0.0000000000
     42621       359  POPE      H2R           -46.2721066488      -49.7380311903      -14.0415602595  MEMB      359             0.0000000000
     42622       359  POPE      H2S           -47.4167878981      -51.1042517748      -14.6231889177  MEMB      359             0.0000000000
     42623       359  POPE      C3            -44.7497164227      -47.0611787502      -17.4838160761  MEMB      359             0.0000000000
     42624       359  POPE      HX            -44.2260138393      -46.7470570337      -18.4119238940  MEMB      359             0.0000000000
     42625       359  POPE      HY            -43.9968955120      -46.9558597426      -16.6735756440  MEMB      359             0.0000000000
     42626       359  POPE      O31           -45.8530194370      -46.1378638720      -17.3451932171  MEMB      359             0.0000000000
     42627       359  POPE      C31           -46.0271497099      -45.5121353105      -16.1977521076  MEMB      359             0.0000000000
     42628       359  POPE      O32           -45.6163955652      -45.7984692070      -15.0877231899  MEMB      359             0.0000000000
     42629       359  POPE      C32           -47.0075147514      -44.3300545602      -16.4319508298  MEMB      359             0.0000000000
     42630       359  POPE      H2X           -47.2108686085      -44.2806244848      -17.5230626181  MEMB      359             0.0000000000
     42631       359  POPE      H2Y           -46.4250627726      -43.4071883114      -16.2236511690  MEMB      359             0.0000000000
     42632       359  POPE      C23           -48.3131484605      -49.2008845423      -14.9663399769  MEMB      359             0.0000000000
     42633       359  POPE      H3R           -48.8994560804      -49.7262170904      -15.7502980702  MEMB      359             0.0000000000
     42634       359  POPE      H3S           -48.1151712326      -48.2156506973      -15.4400913241  MEMB      359             0.0000000000
     42635       359  POPE      C24           -49.0356202344      -48.8910704744      -13.6750534985  MEMB      359             0.0000000000
     42636       359  POPE      H4R           -48.4555919154      -48.1017587220      -13.1507682507  MEMB      359             0.0000000000
     42637       359  POPE      H4S           -49.1858598727      -49.7976458283      -13.0506579108  MEMB      359             0.0000000000
     42638       359  POPE      C25           -50.4115375890      -48.2719427753      -13.7663191327  MEMB      359             0.0000000000
     42639       359  POPE      H5R           -50.5057676832      -47.3086142012      -14.3116994480  MEMB      359             0.0000000000
     42640       359  POPE      H5S           -50.6982987090      -48.0673728843      -12.7126396199  MEMB      359             0.0000000000
     42641       359  POPE      C26           -51.5474656075      -49.1101744847      -14.3725230156  MEMB      359             0.0000000000
     42642       359  POPE      H6R           -51.7530607770      -49.9276388110      -13.6487801514  MEMB      359             0.0000000000
     42643       359  POPE      H6S           -51.2545947550      -49.4605406996      -15.3853364506  MEMB      359             0.0000000000
     42644       359  POPE      C27           -52.8717651604      -48.4396789939      -14.6538785164  MEMB      359             0.0000000000
     42645       359  POPE      H7R           -53.4312760798      -49.1219851043      -15.3289543706  MEMB      359             0.0000000000
     42646       359  POPE      H7S           -52.8150875860      -47.5752057256      -15.3494319844  MEMB      359             0.0000000000
     42647       359  POPE      C28           -53.6783579256      -47.9801615044      -13.4243503777  MEMB      359             0.0000000000
     42648       359  POPE      H8R           -53.5228589722      -48.7000164813      -12.5925148383  MEMB      359             0.0000000000
     42649       359  POPE      H8S           -54.7364215851      -48.1354102307      -13.7255478899  MEMB      359             0.0000000000
     42650       359  POPE      C29           -53.4462360175      -46.5600761722      -13.1150780832  MEMB      359             0.0000000000
     42651       359  POPE      H91           -53.8157783282      -45.8937394349      -13.9084468447  MEMB      359             0.0000000000
     42652       359  POPE      C210          -52.9831165298      -45.9423758725      -11.9819854378  MEMB      359             0.0000000000
     42653       359  POPE      H101          -53.0562219738      -44.8448140677      -11.9782826275  MEMB      359             0.0000000000
     42654       359  POPE      C211          -52.7100547559      -46.6774257994      -10.6804442690  MEMB      359             0.0000000000
     42655       359  POPE      H11R          -51.6492547686      -47.0037087975      -10.7310772081  MEMB      359             0.0000000000
     42656       359  POPE      H11S          -53.3779328351      -47.5629559203      -10.6164410468  MEMB      359             0.0000000000
     42657       359  POPE      C212          -52.6759326926      -45.7806110447       -9.4232160142  MEMB      359             0.0000000000
     42658       359  POPE      H12R          -53.7675605536      -45.7332059820       -9.2221625293  MEMB      359             0.0000000000
     42659       359  POPE      H12S          -52.3589342785      -44.7475392650       -9.6812774597  MEMB      359             0.0000000000
     42660       359  POPE      C213          -52.0863768534      -46.3040251403       -8.1202491967  MEMB      359             0.0000000000
     42661       359  POPE      H13R          -50.9956531653      -46.2883373957       -8.3309540836  MEMB      359             0.0000000000
     42662       359  POPE      H13S          -52.3260891992      -47.3679212509       -7.9081541393  MEMB      359             0.0000000000
     42663       359  POPE      C214          -52.4319739694      -45.4368195280       -6.9326250934  MEMB      359             0.0000000000
     42664       359  POPE      H14R          -53.5132342466      -45.1821431182       -6.9142586073  MEMB      359             0.0000000000
     42665       359  POPE      H14S          -52.0457315705      -44.4155885891       -7.1381136196  MEMB      359             0.0000000000
     42666       359  POPE      C215          -51.7427110930      -45.8977148793       -5.6992022054  MEMB      359             0.0000000000
     42667       359  POPE      H15R          -50.6509123058      -46.0065108083       -5.8737299561  MEMB      359             0.0000000000
     42668       359  POPE      H15S          -52.1101972432      -46.9258040792       -5.4935138308  MEMB      359             0.0000000000
     42669       359  POPE      C216          -52.0085116727      -44.9491641325       -4.4529570211  MEMB      359             0.0000000000
     42670       359  POPE      H16R          -53.0890845505      -44.7427881528       -4.2977402742  MEMB      359             0.0000000000
     42671       359  POPE      H16S          -51.5547135355      -43.9536375097       -4.6461279878  MEMB      359             0.0000000000
     42672       359  POPE      C217          -51.5212270226      -45.6890339368       -3.1319617482  MEMB      359             0.0000000000
     42673       359  POPE      H17R          -51.9399006312      -46.7181223703       -3.1351216833  MEMB      359             0.0000000000
     42674       359  POPE      H17S          -51.9098677330      -45.0702831306       -2.2950467895  MEMB      359             0.0000000000
     42675       359  POPE      C218          -49.9920080667      -45.7319000037       -2.7987799744  MEMB      359             0.0000000000
     42676       359  POPE      H18R          -49.8088530826      -46.3137428986       -1.8702157244  MEMB      359             0.0000000000
     42677       359  POPE      H18S          -49.5394875143      -44.7344482214       -2.6126754446  MEMB      359             0.0000000000
     42678       359  POPE      H18T          -49.4272900332      -46.0874903026       -3.6870207122  MEMB      359             0.0000000000
     42679       359  POPE      C33           -48.2209441781      -44.6451782868      -15.4810559064  MEMB      359             0.0000000000
     42680       359  POPE      H3X           -48.4864904519      -45.6816323279      -15.1817744037  MEMB      359             0.0000000000
     42681       359  POPE      H3Y           -49.0813403803      -44.1513893537      -15.9812678874  MEMB      359             0.0000000000
     42682       359  POPE      C34           -48.0570543116      -43.9166351064      -14.1470670531  MEMB      359             0.0000000000
     42683       359  POPE      H4X           -48.0972156671      -42.8142806953      -14.2794399152  MEMB      359             0.0000000000
     42684       359  POPE      H4Y           -47.0328807680      -44.1399254882      -13.7789211952  MEMB      359             0.0000000000
     42685       359  POPE      C35           -49.0797534323      -44.2997127966      -13.0475743039  MEMB      359             0.0000000000
     42686       359  POPE      H5X           -49.3104248574      -45.3541654162      -12.7844370840  MEMB      359             0.0000000000
     42687       359  POPE      H5Y           -50.0574154995      -43.9973761943      -13.4801140988  MEMB      359             0.0000000000
     42688       359  POPE      C36           -48.8895381652      -43.6195340509      -11.7187861401  MEMB      359             0.0000000000
     42689       359  POPE      H6X           -48.6447816796      -42.5467392636      -11.8721698779  MEMB      359             0.0000000000
     42690       359  POPE      H6Y           -48.0332334721      -44.0720025895      -11.1744192163  MEMB      359             0.0000000000
     42691       359  POPE      C37           -50.0730173503      -43.5840838837      -10.6771805735  MEMB      359             0.0000000000
     42692       359  POPE      H7X           -50.3246134757      -44.6554359933      -10.5247830518  MEMB      359             0.0000000000
     42693       359  POPE      H7Y           -50.9406056039      -43.0638672874      -11.1365124178  MEMB      359             0.0000000000
     42694       359  POPE      C38           -49.6714736302      -42.8819061662       -9.3634120323  MEMB      359             0.0000000000
     42695       359  POPE      H8X           -50.5270289470      -42.9087952100       -8.6551583598  MEMB      359             0.0000000000
     42696       359  POPE      H8Y           -49.4373347079      -41.8319642836       -9.6411204010  MEMB      359             0.0000000000
     42697       359  POPE      C39           -48.4111371064      -43.4390953319       -8.7067556093  MEMB      359             0.0000000000
     42698       359  POPE      H9X           -48.0747499808      -42.6838216335       -7.9646471963  MEMB      359             0.0000000000
     42699       359  POPE      H9Y           -47.5591341400      -43.5944225581       -9.4026617157  MEMB      359             0.0000000000
     42700       359  POPE      C310          -48.6234365454      -44.7292526334       -7.8063898831  MEMB      359             0.0000000000
     42701       359  POPE      H10X          -49.0360071982      -45.4499623085       -8.5444169801  MEMB      359             0.0000000000
     42702       359  POPE      H10Y          -49.3695635204      -44.4037381951       -7.0503105274  MEMB      359             0.0000000000
     42703       359  POPE      C311          -47.2861003051      -45.1119697754       -7.1465944260  MEMB      359             0.0000000000
     42704       359  POPE      H11X          -46.9651040751      -44.2618260203       -6.5074256190  MEMB      359             0.0000000000
     42705       359  POPE      H11Y          -46.5643044819      -45.2280646842       -7.9831671164  MEMB      359             0.0000000000
     42706       359  POPE      C312          -47.2607371833      -46.3597458585       -6.3484066301  MEMB      359             0.0000000000
     42707       359  POPE      H12X          -47.6803265099      -47.2516634519       -6.8609966676  MEMB      359             0.0000000000
     42708       359  POPE      H12Y          -47.7271571819      -46.0607844609       -5.3853925559  MEMB      359             0.0000000000
     42709       359  POPE      C313          -45.8299166282      -46.7202603877       -5.9791778840  MEMB      359             0.0000000000
     42710       359  POPE      H13X          -45.3167773876      -45.7782236001       -5.6900833605  MEMB      359             0.0000000000
     42711       359  POPE      H13Y          -45.2495630174      -47.1247400828       -6.8358615304  MEMB      359             0.0000000000
     42712       359  POPE      C314          -45.5349600018      -47.6521894904       -4.7481566598  MEMB      359             0.0000000000
     42713       359  POPE      H14X          -44.4896582253      -47.6451944966       -4.3718384862  MEMB      359             0.0000000000
     42714       359  POPE      H14Y          -45.6375430332      -48.6696246767       -5.1824649228  MEMB      359             0.0000000000
     42715       359  POPE      C315          -46.5269979351      -47.7415790522       -3.5972442910  MEMB      359             0.0000000000
     42716       359  POPE      H15X          -46.5045570688      -48.7365770309       -3.1034864252  MEMB      359             0.0000000000
     42717       359  POPE      H15Y          -47.5752990596      -47.6453153073       -3.9523767378  MEMB      359             0.0000000000
     42718       359  POPE      C316          -46.3366757787      -46.6307813962       -2.5058824250  MEMB      359             0.0000000000
     42719       359  POPE      H16X          -47.1751470931      -46.7424807262       -1.7855989335  MEMB      359             0.0000000000
     42720       359  POPE      H16Y          -46.4785511954      -45.6619787149       -3.0308726323  MEMB      359             0.0000000000
     42721       359  POPE      H16Z          -45.3979008269      -46.5442100464       -1.9180659957  MEMB      359             0.0000000000
     42722       360  POPE      N             -57.0839197499      -54.2570919454      -19.6579254678  MEMB      360             0.0000000000
     42723       360  POPE      HN1           -57.2653671906      -54.8224995702      -20.5117352997  MEMB      360             0.0000000000
     42724       360  POPE      HN2           -56.5834251812      -54.8306305848      -18.9492940797  MEMB      360             0.0000000000
     42725       360  POPE      HN3           -58.0083983565      -53.9586294079      -19.2866310474  MEMB      360             0.0000000000
     42726       360  POPE      C12           -56.2553288514      -53.0885015110      -19.8264333910  MEMB      360             0.0000000000
     42727       360  POPE      H12A          -56.2011768334      -52.7077941509      -18.7841040694  MEMB      360             0.0000000000
     42728       360  POPE      H12B          -56.7367065833      -52.5337278969      -20.6599936124  MEMB      360             0.0000000000
     42729       360  POPE      C11           -54.8887546573      -53.4146188674      -20.4381682766  MEMB      360             0.0000000000
     42730       360  POPE      H11A          -54.3975464273      -52.4249974030      -20.3211860593  MEMB      360             0.0000000000
     42731       360  POPE      H11B          -54.9823249013      -53.6181305219      -21.5263542284  MEMB      360             0.0000000000
     42732       360  POPE      P             -53.5738627063      -54.2489630377      -18.4162755849  MEMB      360             0.0000000000
     42733       360  POPE      O13           -53.4270208231      -52.7593182417      -18.1772073467  MEMB      360             0.0000000000
     42734       360  POPE      O14           -52.3167558556      -55.0022925645      -18.3376556231  MEMB      360             0.0000000000
     42735       360  POPE      O11           -54.5718480082      -54.7956499945      -17.3399713475  MEMB      360             0.0000000000
     42736       360  POPE      O12           -54.3163397484      -54.5766798396      -19.8063629615  MEMB      360             0.0000000000
     42737       360  POPE      C1            -54.9238213830      -56.1308039378      -17.5503322325  MEMB      360             0.0000000000
     42738       360  POPE      HA            -54.0740225637      -56.8463110933      -17.5649027104  MEMB      360             0.0000000000
     42739       360  POPE      HB            -55.5026560350      -56.1609024233      -18.4981537257  MEMB      360             0.0000000000
     42740       360  POPE      C2            -55.8285045588      -56.5489809546      -16.3472246468  MEMB      360             0.0000000000
     42741       360  POPE      HS            -56.2822535762      -57.5574536921      -16.4540687880  MEMB      360             0.0000000000
     42742       360  POPE      O21           -56.8689121021      -55.5440357564      -16.1989185364  MEMB      360             0.0000000000
     42743       360  POPE      C21           -58.1292238626      -55.9770902695      -15.8962621220  MEMB      360             0.0000000000
     42744       360  POPE      O22           -58.5591784977      -57.0765319252      -15.8593701803  MEMB      360             0.0000000000
     42745       360  POPE      C22           -58.8848918215      -54.6695188054      -15.5784288452  MEMB      360             0.0000000000
     42746       360  POPE      H2R           -59.9765230078      -54.8563818865      -15.4904304720  MEMB      360             0.0000000000
     42747       360  POPE      H2S           -58.6752441319      -54.0046293505      -16.4434669980  MEMB      360             0.0000000000
     42748       360  POPE      C3            -55.1224391009      -56.7199716106      -14.9449316294  MEMB      360             0.0000000000
     42749       360  POPE      HX            -54.6181140739      -57.7059805267      -15.0330438417  MEMB      360             0.0000000000
     42750       360  POPE      HY            -55.9832557332      -56.9182605303      -14.2711384299  MEMB      360             0.0000000000
     42751       360  POPE      O31           -54.2547328705      -55.6133410818      -14.5616755374  MEMB      360             0.0000000000
     42752       360  POPE      C31           -54.3570558804      -55.2235795071      -13.2869887320  MEMB      360             0.0000000000
     42753       360  POPE      O32           -55.0865984724      -55.7143064041      -12.4544124669  MEMB      360             0.0000000000
     42754       360  POPE      C32           -53.3696731671      -54.1399242813      -12.9054863443  MEMB      360             0.0000000000
     42755       360  POPE      H2X           -53.8504080774      -53.1914360180      -13.2273325643  MEMB      360             0.0000000000
     42756       360  POPE      H2Y           -52.3637235350      -54.4317775871      -13.2759020251  MEMB      360             0.0000000000
     42757       360  POPE      C23           -58.2938786135      -53.9943998130      -14.3128096671  MEMB      360             0.0000000000
     42758       360  POPE      H3R           -57.3260775811      -53.4504289197      -14.3549732798  MEMB      360             0.0000000000
     42759       360  POPE      H3S           -58.1748021330      -54.8345091598      -13.5956217684  MEMB      360             0.0000000000
     42760       360  POPE      C24           -59.3895601329      -53.0542922779      -13.5289008681  MEMB      360             0.0000000000
     42761       360  POPE      H4R           -60.1565448105      -53.7359770840      -13.1030356536  MEMB      360             0.0000000000
     42762       360  POPE      H4S           -59.8466880865      -52.3739966992      -14.2789358410  MEMB      360             0.0000000000
     42763       360  POPE      C25           -58.6910902267      -52.2324503515      -12.4182657007  MEMB      360             0.0000000000
     42764       360  POPE      H5R           -59.4432620797      -51.5008404223      -12.0531554692  MEMB      360             0.0000000000
     42765       360  POPE      H5S           -57.8834765245      -51.6220696195      -12.8759955740  MEMB      360             0.0000000000
     42766       360  POPE      C26           -58.0557153788      -53.0452487803      -11.2594124481  MEMB      360             0.0000000000
     42767       360  POPE      H6R           -57.3691406534      -52.4695864334      -10.6024881967  MEMB      360             0.0000000000
     42768       360  POPE      H6S           -57.2683586896      -53.7415723018      -11.6193076376  MEMB      360             0.0000000000
     42769       360  POPE      C27           -58.9569777169      -53.8367379267      -10.3475170234  MEMB      360             0.0000000000
     42770       360  POPE      H7R           -59.0495471207      -54.8300063151      -10.8365664586  MEMB      360             0.0000000000
     42771       360  POPE      H7S           -59.9867245638      -53.4366890173      -10.2296064546  MEMB      360             0.0000000000
     42772       360  POPE      C28           -58.3940838359      -54.0655442813       -8.9769756519  MEMB      360             0.0000000000
     42773       360  POPE      H8R           -59.2964687677      -54.2724382608       -8.3627952272  MEMB      360             0.0000000000
     42774       360  POPE      H8S           -58.0953519469      -53.1295424278       -8.4583412932  MEMB      360             0.0000000000
     42775       360  POPE      C29           -57.4257228970      -55.2148082256       -9.0045007738  MEMB      360             0.0000000000
     42776       360  POPE      H91           -57.3086187374      -55.6821505330       -9.9933767639  MEMB      360             0.0000000000
     42777       360  POPE      C210          -56.6756457481      -55.8791000003       -8.1297217963  MEMB      360             0.0000000000
     42778       360  POPE      H101          -55.9912028667      -56.6294660048       -8.5522009839  MEMB      360             0.0000000000
     42779       360  POPE      C211          -56.5393966857      -55.6790467064       -6.6606600130  MEMB      360             0.0000000000
     42780       360  POPE      H11R          -56.6300277484      -56.6838941176       -6.1954838045  MEMB      360             0.0000000000
     42781       360  POPE      H11S          -57.3063041908      -55.0027683420       -6.2261240828  MEMB      360             0.0000000000
     42782       360  POPE      C212          -55.1785014338      -55.0766363597       -6.3098421975  MEMB      360             0.0000000000
     42783       360  POPE      H12R          -54.9600010041      -54.0865672224       -6.7640909085  MEMB      360             0.0000000000
     42784       360  POPE      H12S          -54.3846919465      -55.7075372597       -6.7638819892  MEMB      360             0.0000000000
     42785       360  POPE      C213          -54.9682199645      -54.8936921827       -4.8176469076  MEMB      360             0.0000000000
     42786       360  POPE      H13R          -55.0216413475      -55.8569357413       -4.2666214448  MEMB      360             0.0000000000
     42787       360  POPE      H13S          -55.7623404601      -54.3115299550       -4.3030787915  MEMB      360             0.0000000000
     42788       360  POPE      C214          -53.6326487112      -54.2264435849       -4.4821672325  MEMB      360             0.0000000000
     42789       360  POPE      H14R          -53.2407906537      -53.3515138196       -5.0436528862  MEMB      360             0.0000000000
     42790       360  POPE      H14S          -52.7774485439      -54.9064391801       -4.6835614699  MEMB      360             0.0000000000
     42791       360  POPE      C215          -53.4616344740      -53.7568767062       -3.0658006861  MEMB      360             0.0000000000
     42792       360  POPE      H15R          -54.1570521072      -52.9056235001       -2.9042982386  MEMB      360             0.0000000000
     42793       360  POPE      H15S          -52.4120805916      -53.3928994061       -3.0824851628  MEMB      360             0.0000000000
     42794       360  POPE      C216          -53.5348758253      -54.8019784513       -1.9092178316  MEMB      360             0.0000000000
     42795       360  POPE      H16R          -52.8558404007      -55.6167109439       -2.2400393252  MEMB      360             0.0000000000
     42796       360  POPE      H16S          -54.5963550602      -55.1266447116       -1.9558513672  MEMB      360             0.0000000000
     42797       360  POPE      C217          -53.0050976863      -54.3645375392       -0.5189738322  MEMB      360             0.0000000000
     42798       360  POPE      H17R          -53.7053366271      -53.7367712782        0.0725456906  MEMB      360             0.0000000000
     42799       360  POPE      H17S          -52.1027974847      -53.7331249166       -0.6655794583  MEMB      360             0.0000000000
     42800       360  POPE      C218          -52.7095556408      -55.5400612464        0.3776663749  MEMB      360             0.0000000000
     42801       360  POPE      H18R          -53.5713366696      -56.0935593839        0.8081247910  MEMB      360             0.0000000000
     42802       360  POPE      H18S          -52.1458044457      -55.1749120084        1.2626354633  MEMB      360             0.0000000000
     42803       360  POPE      H18T          -51.9570094735      -56.1578231237       -0.1574648952  MEMB      360             0.0000000000
     42804       360  POPE      C33           -53.1226228317      -54.0740977138      -11.3940463779  MEMB      360             0.0000000000
     42805       360  POPE      H3X           -52.4685138367      -54.9339991678      -11.1351412814  MEMB      360             0.0000000000
     42806       360  POPE      H3Y           -54.0699289889      -54.1601773230      -10.8200055535  MEMB      360             0.0000000000
     42807       360  POPE      C34           -52.3876549520      -52.8046669165      -10.9541355123  MEMB      360             0.0000000000
     42808       360  POPE      H4X           -51.5817501126      -52.7160682909      -11.7137332436  MEMB      360             0.0000000000
     42809       360  POPE      H4Y           -52.0053376071      -52.8129830421       -9.9110217574  MEMB      360             0.0000000000
     42810       360  POPE      C35           -53.3077270000      -51.6114607015      -10.9220818763  MEMB      360             0.0000000000
     42811       360  POPE      H5X           -53.9593104155      -51.5900646660      -11.8216938534  MEMB      360             0.0000000000
     42812       360  POPE      H5Y           -52.6001725309      -50.7550098305      -10.9086850720  MEMB      360             0.0000000000
     42813       360  POPE      C36           -54.3705246307      -51.5409169934       -9.8052915523  MEMB      360             0.0000000000
     42814       360  POPE      H6X           -54.9762320352      -52.4711687313       -9.7597803795  MEMB      360             0.0000000000
     42815       360  POPE      H6Y           -55.1265099734      -50.7427896028       -9.9659144980  MEMB      360             0.0000000000
     42816       360  POPE      C37           -53.7661354985      -51.1944741050       -8.4739928402  MEMB      360             0.0000000000
     42817       360  POPE      H7X           -52.8133221746      -50.6537364039       -8.6585753731  MEMB      360             0.0000000000
     42818       360  POPE      H7Y           -53.5178054412      -52.0642605142       -7.8289151916  MEMB      360             0.0000000000
     42819       360  POPE      C38           -54.5259336588      -50.3105498457       -7.4637022560  MEMB      360             0.0000000000
     42820       360  POPE      H8X           -55.3905816008      -50.8887159577       -7.0732809903  MEMB      360             0.0000000000
     42821       360  POPE      H8Y           -54.8308555814      -49.3430585469       -7.9168078402  MEMB      360             0.0000000000
     42822       360  POPE      C39           -53.6796933366      -50.1127563218       -6.1889510163  MEMB      360             0.0000000000
     42823       360  POPE      H9X           -52.8246128360      -49.4676138521       -6.4838227789  MEMB      360             0.0000000000
     42824       360  POPE      H9Y           -53.3502857084      -51.1084106321       -5.8222300308  MEMB      360             0.0000000000
     42825       360  POPE      C310          -54.4613656316      -49.5176596967       -4.9983450389  MEMB      360             0.0000000000
     42826       360  POPE      H10X          -55.2699474029      -50.1975986414       -4.6545428863  MEMB      360             0.0000000000
     42827       360  POPE      H10Y          -54.9624980220      -48.6245502896       -5.4290916933  MEMB      360             0.0000000000
     42828       360  POPE      C311          -53.5259368863      -49.2764346289       -3.8089746724  MEMB      360             0.0000000000
     42829       360  POPE      H11X          -52.7486535446      -48.4997362717       -3.9729591578  MEMB      360             0.0000000000
     42830       360  POPE      H11Y          -53.0343625523      -50.2572729722       -3.6339547312  MEMB      360             0.0000000000
     42831       360  POPE      C312          -54.2013368958      -48.8067780761       -2.4910370297  MEMB      360             0.0000000000
     42832       360  POPE      H12X          -54.4240563809      -47.7235742034       -2.5977433851  MEMB      360             0.0000000000
     42833       360  POPE      H12Y          -53.5735151412      -49.0697635178       -1.6129713961  MEMB      360             0.0000000000
     42834       360  POPE      C313          -55.4819889668      -49.5034393033       -2.1345360504  MEMB      360             0.0000000000
     42835       360  POPE      H13X          -55.2566288101      -50.5741222191       -1.9417361760  MEMB      360             0.0000000000
     42836       360  POPE      H13Y          -56.1992844940      -49.2809906469       -2.9532694006  MEMB      360             0.0000000000
     42837       360  POPE      C314          -56.1008067107      -48.9853117378       -0.7691986166  MEMB      360             0.0000000000
     42838       360  POPE      H14X          -55.3069701540      -49.1091489385       -0.0018585633  MEMB      360             0.0000000000
     42839       360  POPE      H14Y          -56.9866851847      -49.5779399680       -0.4556183617  MEMB      360             0.0000000000
     42840       360  POPE      C315          -56.5470857918      -47.5237982859       -0.8165744057  MEMB      360             0.0000000000
     42841       360  POPE      H15X          -56.8056388281      -47.3156411751       -1.8768300493  MEMB      360             0.0000000000
     42842       360  POPE      H15Y          -55.8029332767      -46.7403874869       -0.5580686506  MEMB      360             0.0000000000
     42843       360  POPE      C316          -57.7357790994      -47.2010933543        0.1070870904  MEMB      360             0.0000000000
     42844       360  POPE      H16X          -57.9692768241      -46.1149128288        0.1104860416  MEMB      360             0.0000000000
     42845       360  POPE      H16Y          -57.5122844429      -47.3644509175        1.1830456560  MEMB      360             0.0000000000
     42846       360  POPE      H16Z          -58.6453215909      -47.7115362804       -0.2756677788  MEMB      360             0.0000000000
