        33  EXT
         1         1  LIG       O1             -7.5730000000      -42.1450000000      -13.8860000000  HETA      1              74.9400000000
         2         1  LIG       O2             -6.0450000000      -35.3890000000      -13.0430000000  HETA      1              83.8100000000
         3         1  LIG       C1             -7.7810000000      -41.0060000000      -14.2210000000  HETA      1              79.1700000000
         4         1  LIG       C2             -5.1480000000      -34.1850000000      -11.5600000000  HETA      1              85.0600000000
         5         1  LIG       C3             -4.8760000000      -33.7640000000      -10.3490000000  HETA      1              86.8100000000
         6         1  LIG       C4             -7.6140000000      -35.9820000000      -14.6490000000  HETA      1              82.2500000000
         7         1  LIG       C5             -6.5820000000      -37.6880000000      -13.2800000000  HETA      1              81.9400000000
         8         1  LIG       C6             -8.3720000000      -36.9600000000      -15.2860000000  HETA      1              81.0500000000
         9         1  LIG       C7             -3.0790000000      -29.6480000000       -4.5480000000  HETA      1              87.5500000000
        10         1  LIG       C8             -2.8320000000      -29.4620000000       -3.1770000000  HETA      1              86.8900000000
        11         1  LIG       C9             -6.7430000000      -36.3650000000      -13.6570000000  HETA      1              84.0500000000
        12         1  LIG       C10            -7.3400000000      -38.6690000000      -13.9330000000  HETA      1              81.2500000000
        13         1  LIG       C11            -8.2150000000      -38.2910000000      -14.9140000000  HETA      1              79.8200000000
        14         1  LIG       C12            -3.6890000000      -30.8470000000       -4.9700000000  HETA      1              90.2400000000
        15         1  LIG       C13            -4.6330000000      -32.9520000000       -4.2250000000  HETA      1              86.5500000000
        16         1  LIG       C14            -3.1770000000      -30.4110000000       -2.2210000000  HETA      1              85.4400000000
        17         1  LIG       C15            -4.7940000000      -33.5610000000       -3.0060000000  HETA      1              83.1700000000
        18         1  LIG       C16            -4.0180000000      -31.7430000000       -3.9840000000  HETA      1              86.9300000000
        19         1  LIG       C17            -3.7910000000      -31.5770000000       -2.6700000000  HETA      1              87.1200000000
        20         1  LIG       N1             -7.1740000000      -39.9930000000      -13.5760000000  HETA      1              78.9400000000
        21         1  LIG       N2             -4.1580000000      -32.0080000000       -8.9100000000  HETA      1              91.5500000000
        22         1  LIG       N3             -4.0330000000      -31.1370000000       -6.2730000000  HETA      1              91.2600000000
        23         1  LIG       N4             -4.2760000000      -32.7110000000       -2.0650000000  HETA      1              83.7500000000
        24         1  LIG       C18            -5.5650000000      -35.5380000000      -11.8650000000  HETA      1              83.5600000000
        25         1  LIG       C19            -4.7110000000      -32.3200000000      -10.1670000000  HETA      1              88.6400000000
        26         1  LIG       C20            -4.2690000000      -32.9870000000       -0.6510000000  HETA      1              75.1500000000
        27         1  LIG       C21            -8.6720000000      -40.7140000000      -15.3540000000  HETA      1              76.9400000000
        28         1  LIG       C22            -9.0300000000      -39.3550000000      -15.5910000000  HETA      1              74.9600000000
        29         1  LIG       C23            -4.1740000000      -30.5800000000       -8.6030000000  HETA      1              90.8900000000
        30         1  LIG       C24            -3.5450000000      -30.3020000000       -7.3040000000  HETA      1              90.1300000000
        31         1  LIG       C25            -4.9880000000      -33.3330000000       -5.5790000000  HETA      1              84.6000000000
        32         1  LIG       C26            -4.8220000000      -32.7500000000       -7.8990000000  HETA      1              89.2600000000
        33         1  LIG       C27            -4.1680000000      -32.5640000000       -6.6030000000  HETA      1              90.2800000000
