* GENERATED BY CHARMM-GUI (HTTP://WWW.CHARMM-GUI.ORG) V3.7 ON FEB, 08. 2026. JOB
* GENERATES ION CONFORMATION USING MONTE-CARLO SIMULATION
*  DATE:     2/ 8/26      2: 6: 7      CREATED BY USER: charmm-gui
*
       215  EXT
         1         1  SOD       SOD            43.6502456000       49.7020444000       74.4830479000  IONS      1               1.0000000000
         2         2  SOD       SOD           -38.1411746000      -31.6993909000       28.7212227000  IONS      2               1.0000000000
         3         3  SOD       SOD            18.9278392000       -7.4873079500       89.0631280000  IONS      3               1.0000000000
         4         4  SOD       SOD           -19.7228115000      -28.7642367000       52.5120705000  IONS      4               1.0000000000
         5         5  SOD       SOD            22.5527216000       33.7688573000       84.7070560000  IONS      5               1.0000000000
         6         6  SOD       SOD            46.7291535000      -37.1749989000      -44.9820312000  IONS      6               1.0000000000
         7         7  SOD       SOD           -13.7673845000      -48.4492919000       72.0269471000  IONS      7               1.0000000000
         8         8  SOD       SOD           -44.6984334000      -47.6347169000       89.3277866000  IONS      8               1.0000000000
         9         9  SOD       SOD            49.2967417000       47.7312084000       74.0941995000  IONS      9               1.0000000000
        10        10  SOD       SOD           -22.5165459000       43.9395087000       84.2681250000  IONS      10              1.0000000000
        11        11  SOD       SOD           -36.2076076000      -18.7700637000       43.0502536000  IONS      11              1.0000000000
        12        12  SOD       SOD           -11.2651646000       -1.7156585900       82.9763849000  IONS      12              1.0000000000
        13        13  SOD       SOD           -37.9586515307        2.4087945436       60.7045969254  IONS      13              1.0000000000
        14        14  SOD       SOD            -7.4027634306      -28.7527134838       32.4547104989  IONS      14              1.0000000000
        15        15  SOD       SOD           -53.1023276000      -11.2674753000       70.4521250000  IONS      15              1.0000000000
        16        16  SOD       SOD           -29.6145674000       51.4201968000      -43.0024252000  IONS      16              1.0000000000
        17        17  SOD       SOD             9.6367482800       44.0328690000       86.0142126000  IONS      17              1.0000000000
        18        18  SOD       SOD             3.9761527200       19.1969203000       71.0332195000  IONS      18              1.0000000000
        19        19  SOD       SOD            48.0889040000      -52.8470399000      -29.1717218000  IONS      19              1.0000000000
        20        20  SOD       SOD           -52.8921346000       37.8906710000      -40.5577661000  IONS      20              1.0000000000
        21        21  SOD       SOD           -23.1943420000       15.7840065000      -48.2034110000  IONS      21              1.0000000000
        22        22  SOD       SOD           -32.3979452000       34.2728325000      -48.7000290000  IONS      22              1.0000000000
        23        23  SOD       SOD            38.5310054000      -53.9450154000       44.2121820000  IONS      23              1.0000000000
        24        24  SOD       SOD            -7.8989992400      -19.2503552000       61.6768849000  IONS      24              1.0000000000
        25        25  SOD       SOD            47.8721529000       -4.5697694600      -39.2308666000  IONS      25              1.0000000000
        26        26  SOD       SOD           -23.2397216000      -20.1816474000       71.7446295000  IONS      26              1.0000000000
        27        27  SOD       SOD           -23.6421542000       35.0554459000       76.5801465000  IONS      27              1.0000000000
        28        28  SOD       SOD             9.0077126500       34.2959938000       79.5808718000  IONS      28              1.0000000000
        29        29  SOD       SOD            29.7597662000      -48.4642067000       58.8172979000  IONS      29              1.0000000000
        30        30  SOD       SOD           -17.4791250000      -19.4361499000      -30.2508747000  IONS      30              1.0000000000
        31        31  SOD       SOD             0.8537133830      -53.0602591000       84.2732279000  IONS      31              1.0000000000
        32        32  SOD       SOD            11.1028087000       33.9608208000      -51.7147277000  IONS      32              1.0000000000
        33        33  SOD       SOD            54.1298738000       41.3753336000       39.4512216000  IONS      33              1.0000000000
        34        34  SOD       SOD           -53.3417038000       -1.9525560000      -15.7547643000  IONS      34              1.0000000000
        35        35  SOD       SOD             8.9069189700        3.5228022800       82.2653065000  IONS      35              1.0000000000
        36        36  SOD       SOD            17.0474426000        4.5740692100       79.5131383000  IONS      36              1.0000000000
        37        37  SOD       SOD            -9.8437874543       38.1579921906      -31.3368883738  IONS      37              1.0000000000
        38        38  SOD       SOD            21.2447199000      -21.0522996000      -34.3457586000  IONS      38              1.0000000000
        39        39  SOD       SOD           -16.6401965000       38.3466956000       71.9041603000  IONS      39              1.0000000000
        40        40  SOD       SOD           -14.1365611000       50.1088875000      -41.5398553000  IONS      40              1.0000000000
        41        41  SOD       SOD            48.2930583000      -31.0431926000       60.0973287000  IONS      41              1.0000000000
        42        42  SOD       SOD            -7.8882235938      -24.3086596047       79.1117311921  IONS      42              1.0000000000
        43        43  SOD       SOD            30.5031625802        3.5453236522      -39.7334544519  IONS      43              1.0000000000
        44        44  SOD       SOD            -7.0843123131      -38.2771505871       64.6679130137  IONS      44              1.0000000000
        45        45  SOD       SOD            50.8588892000      -17.8091188000       74.0490867000  IONS      45              1.0000000000
        46        46  SOD       SOD           -10.4774859000        9.3463700200      -27.7324893000  IONS      46              1.0000000000
        47        47  SOD       SOD           -27.6048973000      -11.9523896000      -43.2059130000  IONS      47              1.0000000000
        48        48  SOD       SOD            29.2499292000      -16.5372174000       71.0245979000  IONS      48              1.0000000000
        49        49  SOD       SOD           -28.3170502000       23.0101319000       72.0475971000  IONS      49              1.0000000000
        50        50  SOD       SOD            41.8213880000       39.0787388000       83.8823329000  IONS      50              1.0000000000
        51        51  SOD       SOD            29.0593876000       54.1289461000      -23.2873092000  IONS      51              1.0000000000
        52        52  SOD       SOD            40.6086945000       49.4139519000       38.3105501000  IONS      52              1.0000000000
        53        53  SOD       SOD            28.7517535000      -44.5428621000      -23.8931556000  IONS      53              1.0000000000
        54        54  SOD       SOD           -29.3469596000      -30.0140884000       54.8916938000  IONS      54              1.0000000000
        55        55  SOD       SOD            50.1540387030       16.3563702023       46.3706231988  IONS      55              1.0000000000
        56        56  SOD       SOD           -18.1967713000      -12.1633992000      -46.3649755000  IONS      56              1.0000000000
        57        57  SOD       SOD             6.1726535200       49.1431754000      -25.4594262000  IONS      57              1.0000000000
        58        58  SOD       SOD            16.4548295000      -15.2618633000      -46.8538574000  IONS      58              1.0000000000
        59        59  SOD       SOD           -18.9699894000       42.2434825000       48.6547362000  IONS      59              1.0000000000
        60        60  SOD       SOD            -4.4763280228       -5.3997798870       73.8794524096  IONS      60              1.0000000000
        61        61  SOD       SOD             8.6766717900      -18.7898948000       42.6691407000  IONS      61              1.0000000000
        62        62  SOD       SOD           -33.5202831000       36.4955344000       83.0707236000  IONS      62              1.0000000000
        63        63  SOD       SOD            43.7186461104       18.7314867039      -28.5449766834  IONS      63              1.0000000000
        64        64  SOD       SOD            40.4411855961        7.8993282140      -49.8904079083  IONS      64              1.0000000000
        65        65  SOD       SOD           -31.5000394000       10.8745104000       35.2408606000  IONS      65              1.0000000000
        66        66  SOD       SOD            19.7171690000       29.8788605000      -51.4454857000  IONS      66              1.0000000000
        67        67  SOD       SOD           -32.8945132000      -22.5664563000       77.8391442000  IONS      67              1.0000000000
        68        68  SOD       SOD           -37.6169775000      -30.9171758000       59.7696938000  IONS      68              1.0000000000
        69        69  SOD       SOD            52.0726709000      -22.0201595000       30.4908109000  IONS      69              1.0000000000
        70        70  SOD       SOD             5.2390329200       28.5429676000       54.9733774000  IONS      70              1.0000000000
        71        71  SOD       SOD            25.9565031000      -26.3557531000      -31.2048211000  IONS      71              1.0000000000
        72        72  SOD       SOD            25.2090568000       20.6478923000       75.1135908000  IONS      72              1.0000000000
        73        73  SOD       SOD           -20.7930125000       24.4211689000       40.4851017000  IONS      73              1.0000000000
        74        74  SOD       SOD           -49.2898280000       -8.0087863100       28.9304560000  IONS      74              1.0000000000
        75        75  SOD       SOD            -3.7055525700       38.1889518000       53.2877749000  IONS      75              1.0000000000
        76        76  SOD       SOD           -42.9535913000       24.9802156000       54.8580099000  IONS      76              1.0000000000
        77        77  SOD       SOD           -35.8192652000       -9.6308251800      -30.6350609000  IONS      77              1.0000000000
        78        78  SOD       SOD           -36.6131977000       -4.8362852800       25.0377911000  IONS      78              1.0000000000
        79        79  SOD       SOD            29.7505122000       -0.2824975970      -35.3095530000  IONS      79              1.0000000000
        80        80  SOD       SOD           -32.0695643000       17.9792630000      -37.1226397000  IONS      80              1.0000000000
        81        81  SOD       SOD            40.4620614000       17.2141947000      -37.4317901000  IONS      81              1.0000000000
        82        82  SOD       SOD           -50.8445469000      -16.3135134000      -27.7253937000  IONS      82              1.0000000000
        83        83  SOD       SOD           -34.7900682000       46.3251286000      -47.3251937000  IONS      83              1.0000000000
        84        84  SOD       SOD            31.3042417000       -2.4628814300       25.3089187000  IONS      84              1.0000000000
        85        85  SOD       SOD            19.0694672000      -28.4963002000       76.7378680000  IONS      85              1.0000000000
        86        86  SOD       SOD           -41.9673456000       22.9377015000      -44.1335704000  IONS      86              1.0000000000
        87        87  SOD       SOD           -38.7432048000       24.0146502000      -34.7736523000  IONS      87              1.0000000000
        88        88  SOD       SOD           -28.7056995000      -38.5016400000      -36.3439485000  IONS      88              1.0000000000
        89        89  SOD       SOD            51.5382266000       -1.5470256200       50.2181166000  IONS      89              1.0000000000
        90        90  SOD       SOD           -28.4005791000       48.7407289000       45.2934761000  IONS      90              1.0000000000
        91        91  SOD       SOD            22.4500916000       53.3462550000      -30.9643678000  IONS      91              1.0000000000
        92        92  SOD       SOD           -51.0815352000       -0.3169481340       25.0613585000  IONS      92              1.0000000000
        93        93  SOD       SOD            22.3897889995       43.7025854020      -31.3268479098  IONS      93              1.0000000000
        94        94  SOD       SOD           -10.2325927000       40.3534717000       51.4440011000  IONS      94              1.0000000000
        95        95  SOD       SOD            15.5763344000      -43.3358604000       61.1842703000  IONS      95              1.0000000000
        96        96  SOD       SOD            54.0986478000      -27.8412083000       70.0583304000  IONS      96              1.0000000000
        97        97  CLA       CLA           -22.3835298219        1.3104313662      -47.0359671704  IONS      97             -1.0000000000
        98        98  CLA       CLA            35.4932928000      -53.2573578000      -20.6163776000  IONS      98             -1.0000000000
        99        99  CLA       CLA            20.2864252832      -41.7492549054      -49.5380945359  IONS      99             -1.0000000000
       100       100  CLA       CLA            37.7719076000       50.1513504000       31.5586774000  IONS      100            -1.0000000000
       101       101  CLA       CLA            14.2068657000       54.1406486000       66.3730797000  IONS      101            -1.0000000000
       102       102  CLA       CLA            28.7514369964      -25.4758673999      -50.1053140907  IONS      102            -1.0000000000
       103       103  CLA       CLA           -38.6810215000       31.4040358000       35.8115402000  IONS      103            -1.0000000000
       104       104  CLA       CLA           -24.6577173000       33.0316595000       23.7203691000  IONS      104            -1.0000000000
       105       105  CLA       CLA           -25.0487979000       37.0536856000      -25.7271459000  IONS      105            -1.0000000000
       106       106  CLA       CLA            27.9232762000      -17.6508960000       59.5047593000  IONS      106            -1.0000000000
       107       107  CLA       CLA            36.8947824000       43.7698941000       40.5430266000  IONS      107            -1.0000000000
       108       108  CLA       CLA           -24.7739509040      -24.4074375420       49.9280293990  IONS      108            -1.0000000000
       109       109  CLA       CLA           -51.4293292000       28.3056845000       23.6251046000  IONS      109            -1.0000000000
       110       110  CLA       CLA            28.8063275000        3.0265754800       89.8176997000  IONS      110            -1.0000000000
       111       111  CLA       CLA            17.2178194000      -29.7595317000       36.5613325000  IONS      111            -1.0000000000
       112       112  CLA       CLA           -18.1177132101      -51.9674322127       69.2497223117  IONS      112            -1.0000000000
       113       113  CLA       CLA            11.8980462000       -0.1611369130       69.6100078000  IONS      113            -1.0000000000
       114       114  CLA       CLA            15.1836031000      -28.7445030000      -50.6935487000  IONS      114            -1.0000000000
       115       115  CLA       CLA           -34.1641906000       29.9257118000       51.1709352000  IONS      115            -1.0000000000
       116       116  CLA       CLA           -38.4109031000      -16.2679295000       65.2911673000  IONS      116            -1.0000000000
       117       117  CLA       CLA            39.2599345000       -5.8610355600      -45.1538897000  IONS      117            -1.0000000000
       118       118  CLA       CLA           -37.3052800000       14.2084992000      -39.6015315000  IONS      118            -1.0000000000
       119       119  CLA       CLA           -48.4090283000       25.2186742000       71.4304466000  IONS      119            -1.0000000000
       120       120  CLA       CLA            45.9868832000       42.8798258000       43.1175602000  IONS      120            -1.0000000000
       121       121  CLA       CLA           -41.8249450000       -0.8625284030       37.9872011000  IONS      121            -1.0000000000
       122       122  CLA       CLA            -5.9807773800       40.7299211000       45.2717103000  IONS      122            -1.0000000000
       123       123  CLA       CLA           -27.5268877000      -23.9147606000      -47.7175595000  IONS      123            -1.0000000000
       124       124  CLA       CLA            18.4597463000       27.8699950000      -37.4092661000  IONS      124            -1.0000000000
       125       125  CLA       CLA            31.5274837450       51.2895728016      -51.5229674780  IONS      125            -1.0000000000
       126       126  CLA       CLA            23.6818859000      -21.5224895000       34.9817518000  IONS      126            -1.0000000000
       127       127  CLA       CLA             1.8536748500       50.2621756000       44.8261445000  IONS      127            -1.0000000000
       128       128  CLA       CLA           -23.1291784000      -30.4834733000       60.6711880000  IONS      128            -1.0000000000
       129       129  CLA       CLA           -14.9586270000       31.8714881000       32.8335163000  IONS      129            -1.0000000000
       130       130  CLA       CLA            51.3592603000      -21.4066101000       69.9015440000  IONS      130            -1.0000000000
       131       131  CLA       CLA           -31.5641126000      -13.2896868000       60.6475696000  IONS      131            -1.0000000000
       132       132  CLA       CLA            44.3399092000      -38.8940832000       51.8667308000  IONS      132            -1.0000000000
       133       133  CLA       CLA             0.7250832116      -44.8942330013       84.7177160915  IONS      133            -1.0000000000
       134       134  CLA       CLA           -25.1061848000       26.4829307000       43.9667110000  IONS      134            -1.0000000000
       135       135  CLA       CLA            -1.8924624000        0.3785552370       71.2920728000  IONS      135            -1.0000000000
       136       136  CLA       CLA            30.4753882000      -51.5178972000      -37.2673137000  IONS      136            -1.0000000000
       137       137  CLA       CLA            33.2335257000       27.8418134000      -47.0647197000  IONS      137            -1.0000000000
       138       138  CLA       CLA           -21.6060011000      -34.7808388000       30.7739692000  IONS      138            -1.0000000000
       139       139  CLA       CLA             4.1084539800      -53.8911430000       76.9359755000  IONS      139            -1.0000000000
       140       140  CLA       CLA           -47.5258991000       51.9079864000       86.7923685000  IONS      140            -1.0000000000
       141       141  CLA       CLA            36.5409868000      -25.7334447000       52.0630409000  IONS      141            -1.0000000000
       142       142  CLA       CLA            28.0814620000      -25.0276663000       50.0007621000  IONS      142            -1.0000000000
       143       143  CLA       CLA            20.4658056000      -12.8779375000       68.7494525000  IONS      143            -1.0000000000
       144       144  CLA       CLA            -7.8427563000       28.7908277000      -30.9517624000  IONS      144            -1.0000000000
       145       145  CLA       CLA           -35.4908024000       21.3070109000       54.9777372000  IONS      145            -1.0000000000
       146       146  CLA       CLA            -1.6448895812      -42.8920269756      -50.5607340133  IONS      146            -1.0000000000
       147       147  CLA       CLA            -3.3384033900       50.3816441000       89.0191356000  IONS      147            -1.0000000000
       148       148  CLA       CLA            -3.0099015641      -37.3177224482       31.8074104711  IONS      148            -1.0000000000
       149       149  CLA       CLA           -53.6862507000       10.4427084000       83.6021745000  IONS      149            -1.0000000000
       150       150  CLA       CLA           -51.8441820000       -5.4902489600       35.7417645000  IONS      150            -1.0000000000
       151       151  CLA       CLA           -30.9642671000       46.5598322000       64.2540744000  IONS      151            -1.0000000000
       152       152  CLA       CLA            53.3843734000       37.4526970000      -33.6585105000  IONS      152            -1.0000000000
       153       153  CLA       CLA            -6.5905156800       24.2656033000      -51.4954655000  IONS      153            -1.0000000000
       154       154  CLA       CLA            39.3403013000      -51.9611456000      -49.2062888000  IONS      154            -1.0000000000
       155       155  CLA       CLA            44.1070666000      -21.4995306000       37.6924810000  IONS      155            -1.0000000000
       156       156  CLA       CLA           -27.7662465000       52.0944444000      -34.5565689000  IONS      156            -1.0000000000
       157       157  CLA       CLA            14.0071404653       10.7189145031      -46.7733572945  IONS      157            -1.0000000000
       158       158  CLA       CLA            -8.2621623400      -17.6705338000       89.9876952000  IONS      158            -1.0000000000
       159       159  CLA       CLA           -53.3906187000        5.9935420800       65.3490593000  IONS      159            -1.0000000000
       160       160  CLA       CLA            -2.8487534833       13.1490294871      -43.9743986149  IONS      160            -1.0000000000
       161       161  CLA       CLA             3.6953913700        6.1161670800       75.6896700000  IONS      161            -1.0000000000
       162       162  CLA       CLA            21.7241472021       22.7300205415      -44.0552642667  IONS      162            -1.0000000000
       163       163  CLA       CLA            48.8357690000       39.2747340000      -43.9344664000  IONS      163            -1.0000000000
       164       164  CLA       CLA           -32.9581326000        6.2922451700       47.0908765000  IONS      164            -1.0000000000
       165       165  CLA       CLA           -44.8612245000      -43.8043587000       63.7271186000  IONS      165            -1.0000000000
       166       166  CLA       CLA            16.0718448000       45.9141945000       60.7889410000  IONS      166            -1.0000000000
       167       167  CLA       CLA             6.2042409900       19.0432717000       79.3147206000  IONS      167            -1.0000000000
       168       168  CLA       CLA            29.1490072000       46.7594274000      -36.3507962000  IONS      168            -1.0000000000
       169       169  CLA       CLA             6.9013794000      -33.6763971000       62.3052501000  IONS      169            -1.0000000000
       170       170  CLA       CLA           -49.6938402000       52.7463422000       54.1547593000  IONS      170            -1.0000000000
       171       171  CLA       CLA           -32.7040591956       -4.9411712692       34.9917387837  IONS      171            -1.0000000000
       172       172  CLA       CLA            15.0264216000      -19.0461619000       72.8673374000  IONS      172            -1.0000000000
       173       173  CLA       CLA            35.8138868000       54.6359035000       57.9820234000  IONS      173            -1.0000000000
       174       174  CLA       CLA             9.8064764800       27.9824925000       31.8422299000  IONS      174            -1.0000000000
       175       175  CLA       CLA            17.7076776000      -23.8210136000       44.3693123000  IONS      175            -1.0000000000
       176       176  CLA       CLA           -25.8043974756      -34.1912571170       65.8887528964  IONS      176            -1.0000000000
       177       177  CLA       CLA           -14.1948334000        7.2202648900       74.7866701000  IONS      177            -1.0000000000
       178       178  CLA       CLA             7.3520523500       29.9151501000       67.4354162000  IONS      178            -1.0000000000
       179       179  CLA       CLA            -5.8622453400      -30.4331916000       56.5621388000  IONS      179            -1.0000000000
       180       180  CLA       CLA           -51.9028627000      -12.9927177000       35.3641738000  IONS      180            -1.0000000000
       181       181  CLA       CLA           -47.4709303000      -54.2875986000       87.9102367000  IONS      181            -1.0000000000
       182       182  CLA       CLA            46.3875209937       -5.1905988335      -34.7522125813  IONS      182            -1.0000000000
       183       183  CLA       CLA           -26.6040054000       35.0538235000       52.3751660000  IONS      183            -1.0000000000
       184       184  CLA       CLA            -8.9920309799      -54.2720984150       75.4284276259  IONS      184            -1.0000000000
       185       185  CLA       CLA            51.1369369000      -19.6928469000      -28.6963634000  IONS      185            -1.0000000000
       186       186  CLA       CLA           -49.3596141000      -25.5389073000      -38.2766822000  IONS      186            -1.0000000000
       187       187  CLA       CLA           -39.7012728000        0.5049540590       24.8509169000  IONS      187            -1.0000000000
       188       188  CLA       CLA           -50.4202225000       -7.1547268000       41.8313559000  IONS      188            -1.0000000000
       189       189  CLA       CLA            35.0613302000       53.7991151000       48.3981003000  IONS      189            -1.0000000000
       190       190  CLA       CLA            17.6039873000       53.4305509000      -46.6893413000  IONS      190            -1.0000000000
       191       191  CLA       CLA           -13.4751900000       40.1572945000       40.2621017000  IONS      191            -1.0000000000
       192       192  CLA       CLA           -27.0497759000       33.6643234000       71.2436052000  IONS      192            -1.0000000000
       193       193  CLA       CLA           -42.5555486000      -37.5258699000       81.5540441000  IONS      193            -1.0000000000
       194       194  CLA       CLA            -4.4169400000      -41.5239667000       44.4761286000  IONS      194            -1.0000000000
       195       195  CLA       CLA           -13.0913002000      -34.0074717000      -28.7066278000  IONS      195            -1.0000000000
       196       196  CLA       CLA           -15.1575522000      -50.1482562000       29.2735627000  IONS      196            -1.0000000000
       197       197  CLA       CLA           -20.0153987000      -31.5277720000       49.5970151000  IONS      197            -1.0000000000
       198       198  CLA       CLA            43.0436728000      -41.2216325000       69.7379090000  IONS      198            -1.0000000000
       199       199  CLA       CLA            31.2759590000       51.7581264000       79.0278303000  IONS      199            -1.0000000000
       200       200  CLA       CLA           -28.5287658614       17.4915687974       82.1573472089  IONS      200            -1.0000000000
       201       201  CLA       CLA             9.5109539600       41.5064615000      -32.1315697000  IONS      201            -1.0000000000
       202       202  CLA       CLA           -30.4580504000      -35.0470680000      -26.4794256000  IONS      202            -1.0000000000
       203       203  CLA       CLA            39.6727939000      -44.7482936000      -38.2233367000  IONS      203            -1.0000000000
       204       204  CLA       CLA            52.3847909000       39.8001864000       75.1673813000  IONS      204            -1.0000000000
       205       205  CLA       CLA           -32.0090963000       -4.5172707200       76.9442578000  IONS      205            -1.0000000000
       206       206  CLA       CLA             6.5679569100       31.9605063000      -46.5752496000  IONS      206            -1.0000000000
       207       207  CLA       CLA            -7.2738962400       39.0266520000       61.9711579000  IONS      207            -1.0000000000
       208       208  CLA       CLA           -43.4796357000      -28.5461197000       68.5236338000  IONS      208            -1.0000000000
       209       209  CLA       CLA             7.0959554418       51.6219526182       56.8559747370  IONS      209            -1.0000000000
       210       210  CLA       CLA           -53.1697543000       43.2704973000       68.4452426000  IONS      210            -1.0000000000
       211       211  CLA       CLA           -24.0658066000       24.8602806000       31.1673410000  IONS      211            -1.0000000000
       212       212  CLA       CLA           -49.5647763000        4.4220840500      -25.5534581000  IONS      212            -1.0000000000
       213       213  CLA       CLA            44.7270284000       38.6506645000      -36.4993075000  IONS      213            -1.0000000000
       214       214  CLA       CLA            11.2195422000       -1.3050359800       75.6562279000  IONS      214            -1.0000000000
       215       215  CLA       CLA            47.2374741000       -3.2364817900       79.3208405000  IONS      215            -1.0000000000
