* GENERATED BY CHARMM-GUI (HTTP://WWW.CHARMM-GUI.ORG) V3.7 ON FEB, 08. 2026. JOB
* GET A DIFFERENT CONFORMATION FOR LIPIDS PENETRATING PROTEIN / CHOL
*  DATE:     2/ 8/26      2: 1:25      CREATED BY USER: charmm-gui
*
       414  EXT
         1         1  TIP3      OH2           -22.4206948481      -29.9438724703       20.7067050000  TIP3      1               0.0000000000
         2         1  TIP3      H1            -23.0940732741      -30.0533795378       20.0352750000  TIP3      1               0.0000000000
         3         1  TIP3      H2            -22.0417069923      -30.8166324363       20.8110850000  TIP3      1               0.0000000000
         4         2  TIP3      OH2           -25.1145590684      -29.9768118685       21.5917350000  TIP3      2               0.0000000000
         5         2  TIP3      H1            -24.1877070264      -29.7531744316       21.5071450000  TIP3      2               0.0000000000
         6         2  TIP3      H2            -25.3522410476      -29.6858992178       22.4721350000  TIP3      2               0.0000000000
         7         3  TIP3      OH2           -26.9911302173      -28.8321647494       20.0710650000  TIP3      3               0.0000000000
         8         3  TIP3      H1            -26.3268633283      -29.3966389745       20.4664650000  TIP3      3               0.0000000000
         9         3  TIP3      H2            -26.5821066109      -27.9674079212       20.0374550000  TIP3      3               0.0000000000
        10         4  TIP3      OH2            -9.8233473279       14.3477712307       20.1143400000  TIP3      4               0.0000000000
        11         4  TIP3      H1            -10.6587705944       14.8149657892       20.1204100000  TIP3      4               0.0000000000
        12         4  TIP3      H2             -9.3435924138       14.7042678506       20.8619800000  TIP3      4               0.0000000000
        13         5  TIP3      OH2            -9.7118130097       17.5867437073       20.9214500000  TIP3      5               0.0000000000
        14         5  TIP3      H1            -10.1940415884       17.2872970995       21.6921800000  TIP3      5               0.0000000000
        15         5  TIP3      H2            -10.2738496913       17.3555692292       20.1819300000  TIP3      5               0.0000000000
        16         6  TIP3      OH2            -7.5788687831       13.0932103067       19.0859200000  TIP3      6               0.0000000000
        17         6  TIP3      H1             -8.4534945808       13.3129996399       19.4067900000  TIP3      6               0.0000000000
        18         6  TIP3      H2             -7.6796114588       13.0341927508       18.1358600000  TIP3      6               0.0000000000
        19         7  TIP3      OH2            -5.3347625637       15.2606832948       20.3757000000  TIP3      7               0.0000000000
        20         7  TIP3      H1             -4.7744513145       14.5131634632       20.5842600000  TIP3      7               0.0000000000
        21         7  TIP3      H2             -6.0787991874       14.8800732746       19.9090400000  TIP3      7               0.0000000000
        22         8  TIP3      OH2            -6.6865603974       17.7284597203       20.5431100000  TIP3      8               0.0000000000
        23         8  TIP3      H1             -6.3435432606       16.9347397069       20.9537000000  TIP3      8               0.0000000000
        24         8  TIP3      H2             -7.4438245850       17.4300418410       20.0394000000  TIP3      8               0.0000000000
        25         9  TIP3      OH2           -10.3619801024      -52.6009046133       19.2542300000  TIP3      9               0.0000000000
        26         9  TIP3      H1             -9.4885464852      -52.6850462370       19.6366600000  TIP3      9               0.0000000000
        27         9  TIP3      H2            -10.8656008660      -52.1185300656       19.9099000000  TIP3      9               0.0000000000
        28        10  TIP3      OH2            -4.7434862733      -53.8326617455       19.3860300000  TIP3      10              0.0000000000
        29        10  TIP3      H1             -4.4833820561      -53.1658126499       18.7505000000  TIP3      10              0.0000000000
        30        10  TIP3      H2             -4.1007041302      -53.7558708663       20.0911300000  TIP3      10              0.0000000000
        31        11  TIP3      OH2            -8.3935500606      -53.0541812402       20.9927100000  TIP3      11              0.0000000000
        32        11  TIP3      H1             -7.8778333604      -53.1629517616       20.1936900000  TIP3      11              0.0000000000
        33        11  TIP3      H2             -7.9131325894      -52.4009417918       21.5013600000  TIP3      11              0.0000000000
        34        12  TIP3      OH2            24.9809485454      -24.2254395032       19.4408000000  TIP3      12              0.0000000000
        35        12  TIP3      H1             25.2364120080      -24.1827202359       20.3623000000  TIP3      12              0.0000000000
        36        12  TIP3      H2             24.7624929880      -23.3224723432       19.2102200000  TIP3      12              0.0000000000
        37        13  TIP3      OH2            26.7272344565      -20.9753294792       20.0972200000  TIP3      13              0.0000000000
        38        13  TIP3      H1             25.9914942458      -21.0408144578       19.4884300000  TIP3      13              0.0000000000
        39        13  TIP3      H2             27.2934294102      -20.3031371217       19.7179900000  TIP3      13              0.0000000000
        40        14  TIP3      OH2           -35.6036013953       26.4342475245       19.0334100000  TIP3      14              0.0000000000
        41        14  TIP3      H1            -35.9834526868       25.6279848122       18.6842900000  TIP3      14              0.0000000000
        42        14  TIP3      H2            -36.3347518341       27.0513671691       19.0617000000  TIP3      14              0.0000000000
        43        15  TIP3      OH2           -32.2894114370       26.5335082756       21.2829800000  TIP3      15              0.0000000000
        44        15  TIP3      H1            -32.4629992378       26.4861521787       20.3428400000  TIP3      15              0.0000000000
        45        15  TIP3      H2            -32.2548184984       27.4708674951       21.4737200000  TIP3      15              0.0000000000
        46        16  TIP3      OH2            13.8127958635       43.8722079778       20.9578150000  TIP3      16              0.0000000000
        47        16  TIP3      H1             14.2568587889       43.9727049840       20.1158250000  TIP3      16              0.0000000000
        48        16  TIP3      H2             13.6806248279       44.7680993185       21.2678750000  TIP3      16              0.0000000000
        49        17  TIP3      OH2            16.5026639851       44.0242398490       21.4560750000  TIP3      17              0.0000000000
        50        17  TIP3      H1             15.5457204797       44.0441598401       21.4453850000  TIP3      17              0.0000000000
        51        17  TIP3      H2             16.7644646755       44.8327553320       21.0156350000  TIP3      17              0.0000000000
        52        18  TIP3      OH2            15.5338643518       55.1697036975       19.2077500000  TIP3      18              0.0000000000
        53        18  TIP3      H1             15.7515942587       54.6818614923       20.0020000000  TIP3      18              0.0000000000
        54        18  TIP3      H2             14.9598723192       54.5828559317       18.7154200000  TIP3      18              0.0000000000
        55        19  TIP3      OH2           -18.7715385220        8.2103251420       19.7491800000  TIP3      19              0.0000000000
        56        19  TIP3      H1            -19.4481708845        7.6980411084       19.3064800000  TIP3      19              0.0000000000
        57        19  TIP3      H2            -18.3013487077        7.5730804325       20.2868200000  TIP3      19              0.0000000000
        58        20  TIP3      OH2           -21.8095588688        8.8698371427       20.3887000000  TIP3      20              0.0000000000
        59        20  TIP3      H1            -21.6126238868        8.1170407949       19.8312500000  TIP3      20              0.0000000000
        60        20  TIP3      H2            -22.4730194272        8.5490617887       20.9995700000  TIP3      20              0.0000000000
        61        21  TIP3      OH2           -21.2168901632        4.8286892994       20.2826000000  TIP3      21              0.0000000000
        62        21  TIP3      H1            -20.7900843008        5.0397373191       21.1129800000  TIP3      21              0.0000000000
        63        21  TIP3      H2            -21.8183055218        4.1153713236       20.4963800000  TIP3      21              0.0000000000
        64        22  TIP3      OH2           -36.6778162472       -9.8913206424       19.7948300000  TIP3      22              0.0000000000
        65        22  TIP3      H1            -36.8759620325       -9.9019254450       20.7312300000  TIP3      22              0.0000000000
        66        22  TIP3      H2            -36.2975335041       -9.0266841420       19.6397700000  TIP3      22              0.0000000000
        67        23  TIP3      OH2           -31.9240970676      -10.3081722755       20.0491000000  TIP3      23              0.0000000000
        68        23  TIP3      H1            -32.4772033237      -10.8555019059       19.4916600000  TIP3      23              0.0000000000
        69        23  TIP3      H2            -31.5579151180      -10.9143565604       20.6930500000  TIP3      23              0.0000000000
        70        24  TIP3      OH2           -34.8210029615      -12.3376017889       21.4289000000  TIP3      24              0.0000000000
        71        24  TIP3      H1            -34.9446080168      -11.9194112640       20.5768000000  TIP3      24              0.0000000000
        72        24  TIP3      H2            -35.1114724136      -13.2401777380       21.2976600000  TIP3      24              0.0000000000
        73        25  TIP3      OH2            46.0366648574       -4.2107957785       18.5443450000  TIP3      25              0.0000000000
        74        25  TIP3      H1             46.3718984845       -3.7863695247       19.3340950000  TIP3      25              0.0000000000
        75        25  TIP3      H2             46.5155414611       -3.7955736411       17.8270550000  TIP3      25              0.0000000000
        76        26  TIP3      OH2            43.4072795811       -5.7107615093       21.8610050000  TIP3      26              0.0000000000
        77        26  TIP3      H1             42.7147862293       -5.3268464037       21.3231550000  TIP3      26              0.0000000000
        78        26  TIP3      H2             43.8021922431       -6.3799295109       21.3019950000  TIP3      26              0.0000000000
        79        27  TIP3      OH2            47.5936877601       -7.1379162706       19.0862850000  TIP3      27              0.0000000000
        80        27  TIP3      H1             46.8251168406       -6.5955085668       18.9092550000  TIP3      27              0.0000000000
        81        27  TIP3      H2             47.2716464446       -8.0373180983       19.0263050000  TIP3      27              0.0000000000
        82        28  TIP3      OH2            44.2277759574       -8.8621546337       19.8581650000  TIP3      28              0.0000000000
        83        28  TIP3      H1             44.3819999499       -7.9836196753       19.5108650000  TIP3      28              0.0000000000
        84        28  TIP3      H2             43.2841707786       -8.8958402964       20.0153350000  TIP3      28              0.0000000000
        85        29  TIP3      OH2            24.3964412669      -38.8478485572       20.5276150000  TIP3      29              0.0000000000
        86        29  TIP3      H1             25.2893422005      -38.8021077827       20.1857650000  TIP3      29              0.0000000000
        87        29  TIP3      H2             23.9966228971      -38.0183363725       20.2663050000  TIP3      29              0.0000000000
        88        30  TIP3      OH2            28.6973360018      -40.2261698272       20.4850850000  TIP3      30              0.0000000000
        89        30  TIP3      H1             29.5345905749      -40.6726957389       20.6109150000  TIP3      30              0.0000000000
        90        30  TIP3      H2             28.7544648913      -39.8523974579       19.6057250000  TIP3      30              0.0000000000
        91        31  TIP3      OH2            -0.7858297610      -33.7234637047       20.0066600000  TIP3      31              0.0000000000
        92        31  TIP3      H1             -0.9170668104      -34.6534290169       19.8217700000  TIP3      31              0.0000000000
        93        31  TIP3      H2             -1.4154774559      -33.2753167986       19.4419200000  TIP3      31              0.0000000000
        94        32  TIP3      OH2            -4.8823589175      -30.3398558300       19.3267300000  TIP3      32              0.0000000000
        95        32  TIP3      H1             -5.2805339288      -30.8431797079       20.0369100000  TIP3      32              0.0000000000
        96        32  TIP3      H2             -5.6251627611      -29.9872883778       18.8366700000  TIP3      32              0.0000000000
        97        33  TIP3      OH2            -4.0175053198      -35.5758547248       18.9208300000  TIP3      33              0.0000000000
        98        33  TIP3      H1             -4.8929940005      -35.5833568611       18.5339300000  TIP3      33              0.0000000000
        99        33  TIP3      H2             -4.0958591442      -34.9990437480       19.6806800000  TIP3      33              0.0000000000
       100        34  TIP3      OH2            23.1927097759       38.3994007041       20.7196950000  TIP3      34             14.2400000000
       101        34  TIP3      H1             22.6143959680       38.8904532773       21.3033450000  TIP3      34              0.0000000000
       102        34  TIP3      H2             22.9557987039       37.4830241827       20.8623550000  TIP3      34              0.0000000000
       103        35  TIP3      OH2           -18.6339210182      -19.1345453457       20.4817750000  TIP3      35            -22.2800000000
       104        35  TIP3      H1            -18.2291065329      -18.5422619047       19.8480950000  TIP3      35              0.0000000000
       105        35  TIP3      H2            -19.3037680694      -19.6002344044       19.9810950000  TIP3      35              0.0000000000
       106        36  TIP3      OH2           -20.8798338847      -15.4664724952       18.4879650000  TIP3      36              0.0000000000
       107        36  TIP3      H1            -21.7304237556      -15.2285643357       18.8569350000  TIP3      36              0.0000000000
       108        36  TIP3      H2            -20.3444217592      -14.6799338289       18.5925450000  TIP3      36              0.0000000000
       109        37  TIP3      OH2           -19.5519241327      -16.9147715207       21.5976050000  TIP3      37              0.0000000000
       110        37  TIP3      H1            -19.2677088972      -17.7709331807       21.2775350000  TIP3      37              0.0000000000
       111        37  TIP3      H2            -18.7415295838      -16.4157941488       21.7001750000  TIP3      37              0.0000000000
       112        38  TIP3      OH2           -17.4812811445      -14.2523628584       20.6855650000  TIP3      38              0.0000000000
       113        38  TIP3      H1            -16.7064217115      -13.6943945335       20.7525550000  TIP3      38              0.0000000000
       114        38  TIP3      H2            -17.2433826090      -15.0509760788       21.1565850000  TIP3      38              0.0000000000
       115        39  TIP3      OH2             0.0605895413       54.1678425128       20.2092100000  TIP3      39             -5.2800000000
       116        39  TIP3      H1              0.2598146655       53.4805221749       19.5735000000  TIP3      39             -5.1500000000
       117        39  TIP3      H2              0.4520238744       53.8595847339       21.0265100000  TIP3      39             -4.6700000000
       118        40  TIP3      OH2             1.1550808530       49.5215236285       19.6216700000  TIP3      40              0.0000000000
       119        40  TIP3      H1              1.5417505569       48.6641112636       19.4440400000  TIP3      40              0.0000000000
       120        40  TIP3      H2              1.3986743404       49.7115997328       20.5276300000  TIP3      40              0.0000000000
       121        41  TIP3      OH2             1.1377365482       52.1073019143       21.9119700000  TIP3      41              0.0000000000
       122        41  TIP3      H1              0.7390825195       51.7976255737       22.7252400000  TIP3      41              0.0000000000
       123        41  TIP3      H2              2.0236794525       51.7451669428       21.9259000000  TIP3      41              0.0000000000
       124        42  TIP3      OH2            -1.3428778368       50.4371606286       20.5261900000  TIP3      42              0.0000000000
       125        42  TIP3      H1             -1.3682370906       51.3155321244       20.1466500000  TIP3      42              0.0000000000
       126        42  TIP3      H2             -0.6233093328       49.9997571182       20.0710700000  TIP3      42              0.0000000000
       127        43  TIP3      OH2            26.9514314725      -12.3036902473       19.0978600000  TIP3      43              0.0000000000
       128        43  TIP3      H1             26.5945718496      -11.7213483714       18.4272100000  TIP3      43              0.0000000000
       129        43  TIP3      H2             27.5915217926      -12.8420203619       18.6323400000  TIP3      43              0.0000000000
       130        44  TIP3      OH2            25.4634105008      -14.1225336440       21.8096000000  TIP3      44              0.0000000000
       131        44  TIP3      H1             24.7767601671      -14.7221791647       22.1014400000  TIP3      44              0.0000000000
       132        44  TIP3      H2             25.8716012748      -14.5681489130       21.0672800000  TIP3      44              0.0000000000
       133        45  TIP3      OH2            23.0890936197      -12.7065279271       21.4138400000  TIP3      45              0.0000000000
       134        45  TIP3      H1             23.9407780060      -12.9585078292       21.7707400000  TIP3      45              0.0000000000
       135        45  TIP3      H2             23.0372810228      -13.1609933027       20.5730000000  TIP3      45              0.0000000000
       136        46  TIP3      OH2            26.0833155027      -15.6523842964       19.7280500000  TIP3      46              0.0000000000
       137        46  TIP3      H1             25.6421280375      -16.3317392682       20.2380100000  TIP3      46              0.0000000000
       138        46  TIP3      H2             26.2402347986      -16.0566952513       18.8747300000  TIP3      46              0.0000000000
       139        47  TIP3      OH2           -45.3864110644      -29.8808516735       20.5045850000  TIP3      47              0.0000000000
       140        47  TIP3      H1            -44.8261341354      -29.3464072774       21.0673450000  TIP3      47              0.0000000000
       141        47  TIP3      H2            -45.4749264541      -30.7109679957       20.9728850000  TIP3      47              0.0000000000
       142        48  TIP3      OH2           -28.5782153186      -21.0857724451       19.2314900000  TIP3      48              0.0000000000
       143        48  TIP3      H1            -28.0224136587      -20.3323615274       19.4307400000  TIP3      48              0.0000000000
       144        48  TIP3      H2            -29.2021856219      -20.7589582769       18.5833600000  TIP3      48              0.0000000000
       145        49  TIP3      OH2           -22.9932039208      -22.8469448602       19.7612500000  TIP3      49              0.0000000000
       146        49  TIP3      H1            -23.7540570752      -22.2985503599       19.5699200000  TIP3      49              0.0000000000
       147        49  TIP3      H2            -22.2545109243      -22.2382626349       19.7689200000  TIP3      49              0.0000000000
       148        50  TIP3      OH2           -26.0914689289      -20.2444732545       21.6642600000  TIP3      50              0.0000000000
       149        50  TIP3      H1            -25.3435199545      -20.7640877941       21.9589000000  TIP3      50              0.0000000000
       150        50  TIP3      H2            -26.2114653536      -19.5867074738       22.3492300000  TIP3      50              0.0000000000
       151        51  TIP3      OH2           -26.7267179212      -23.4209162779       21.2479700000  TIP3      51              0.0000000000
       152        51  TIP3      H1            -25.9999061152      -22.7982735687       21.2309300000  TIP3      51              0.0000000000
       153        51  TIP3      H2            -26.3815577884      -24.2044726540       20.8200100000  TIP3      51              0.0000000000
       154        52  TIP3      OH2           -54.1559616031       14.4380642862       19.7931300000  TIP3      52              0.0000000000
       155        52  TIP3      H1            -54.9182764024       14.7195788529       19.2873100000  TIP3      52              0.0000000000
       156        52  TIP3      H2            -54.0461669725       13.5142919378       19.5676700000  TIP3      52              0.0000000000
       157        53  TIP3      OH2           -50.7350456047      -39.9830852839       19.6809400000  TIP3      53              0.0000000000
       158        53  TIP3      H1            -51.3332352853      -39.7661058186       20.3960100000  TIP3      53              0.0000000000
       159        53  TIP3      H2            -50.5749923888      -39.1485198292       19.2403600000  TIP3      53              0.0000000000
       160        54  TIP3      OH2           -52.3700988546      -42.5944441786       22.0563900000  TIP3      54              0.0000000000
       161        54  TIP3      H1            -51.9530821000      -43.1144706346       21.3694400000  TIP3      54              0.0000000000
       162        54  TIP3      H2            -52.8809143845      -43.2279871629       22.5603000000  TIP3      54              0.0000000000
       163        55  TIP3      OH2           -54.4852782072      -39.6197568325       17.6035100000  TIP3      55              0.0000000000
       164        55  TIP3      H1            -53.7619597300      -40.1311865891       17.9661100000  TIP3      55              0.0000000000
       165        55  TIP3      H2            -54.1580267876      -38.7204124363       17.5856800000  TIP3      55              0.0000000000
       166        56  TIP3      OH2            52.6660344332      -46.6576739456       19.2405950000  TIP3      56              0.0000000000
       167        56  TIP3      H1             51.8772458099      -46.9518966692       18.7850950000  TIP3      56              0.0000000000
       168        56  TIP3      H2             52.9367263250      -45.8706548379       18.7677750000  TIP3      56              0.0000000000
       169        57  TIP3      OH2            52.4667577870      -48.9684475903       20.6187650000  TIP3      57              0.0000000000
       170        57  TIP3      H1             51.6640655435      -49.3082589379       20.2232450000  TIP3      57              0.0000000000
       171        57  TIP3      H2             52.6523320860      -48.1650139405       20.1326650000  TIP3      57              0.0000000000
       172        58  TIP3      OH2            47.5431034996      -47.2616590881       20.4829150000  TIP3      58              0.0000000000
       173        58  TIP3      H1             48.4030546916      -47.6143274154       20.2541450000  TIP3      58              0.0000000000
       174        58  TIP3      H2             47.6852028778      -46.3188715114       20.5677850000  TIP3      58              0.0000000000
       175        59  TIP3      OH2            34.8477824990       49.8443862151       20.2606700000  TIP3      59              0.0000000000
       176        59  TIP3      H1             34.6625021285       49.9009294870       21.1980600000  TIP3      59              0.0000000000
       177        59  TIP3      H2             33.9959213229       49.6774432456       19.8573100000  TIP3      59              0.0000000000
       178        60  TIP3      OH2            38.7576557455       50.4926017881       20.9279800000  TIP3      60              0.0000000000
       179        60  TIP3      H1             38.0670498412       50.3509400829       20.2805000000  TIP3      60              0.0000000000
       180        60  TIP3      H2             38.7274462260       51.4319630572       21.1094500000  TIP3      60              0.0000000000
       181        61  TIP3      OH2            34.6940246479       53.1700967677       20.1021000000  TIP3      61              0.0000000000
       182        61  TIP3      H1             35.6313556073       52.9809733303       20.0588800000  TIP3      61              0.0000000000
       183        61  TIP3      H2             34.4482807981       52.9608380791       21.0032400000  TIP3      61              0.0000000000
       184        62  TIP3      OH2           -43.5238085024       36.9096648098       20.7326000000  TIP3      62              0.0000000000
       185        62  TIP3      H1            -42.5880326578       36.8046858059       20.5607300000  TIP3      62              0.0000000000
       186        62  TIP3      H2            -43.9414528269       36.2202802535       20.2163200000  TIP3      62              0.0000000000
       187        63  TIP3      OH2           -42.4281487330       41.3572820787       19.8484600000  TIP3      63              0.0000000000
       188        63  TIP3      H1            -42.3386929867       42.3102599515       19.8560600000  TIP3      63              0.0000000000
       189        63  TIP3      H2            -41.7166460924       41.0539389811       19.2845600000  TIP3      63              0.0000000000
       190        64  TIP3      OH2           -29.9622727203       50.7492630523       20.8541850000  TIP3      64            -34.9100000000
       191        64  TIP3      H1            -29.4169859367       50.6778595779       21.6376450000  TIP3      64            -34.0500000000
       192        64  TIP3      H2            -30.2577463025       51.6597062096       20.8496050000  TIP3      64            -35.1600000000
       193        65  TIP3      OH2           -29.0894208938       51.8234235698       18.1437950000  TIP3      65              0.0000000000
       194        65  TIP3      H1            -29.5516069196       52.5301626816       18.5945050000  TIP3      65              0.0000000000
       195        65  TIP3      H2            -29.0820863767       51.1020064366       18.7728750000  TIP3      65              0.0000000000
       196        66  TIP3      OH2           -26.3223033960       47.3072269935       19.8169150000  TIP3      66              0.0000000000
       197        66  TIP3      H1            -26.8043594693       48.0029016122       19.3698150000  TIP3      66              0.0000000000
       198        66  TIP3      H2            -27.0019793188       46.7419001514       20.1838950000  TIP3      66              0.0000000000
       199        67  TIP3      OH2           -28.7081771554       48.2782934293       21.8856150000  TIP3      67              0.0000000000
       200        67  TIP3      H1            -28.1136339133       48.6433725097       21.2302750000  TIP3      67              0.0000000000
       201        67  TIP3      H2            -29.4597020312       47.9671337766       21.3810050000  TIP3      67              0.0000000000
       202        68  TIP3      OH2            10.6878196451       32.7529627795       20.1595150000  TIP3      68              0.0000000000
       203        68  TIP3      H1             10.8582096563       32.0056013197       20.7327850000  TIP3      68              0.0000000000
       204        68  TIP3      H2             11.2075165800       33.4649797659       20.5325850000  TIP3      68              0.0000000000
       205        69  TIP3      OH2           -41.8642956324      -18.6309491620       19.4200050000  TIP3      69              0.0000000000
       206        69  TIP3      H1            -41.3770789994      -19.2335614773       18.8581250000  TIP3      69              0.0000000000
       207        69  TIP3      H2            -41.3750551178      -17.8096147705       19.3721850000  TIP3      69              0.0000000000
       208        70  TIP3      OH2           -43.0213808316      -16.2196371289       21.4578050000  TIP3      70              0.0000000000
       209        70  TIP3      H1            -43.4311771323      -17.0804136624       21.3719750000  TIP3      70              0.0000000000
       210        70  TIP3      H2            -42.6789260124      -16.0287249038       20.5845950000  TIP3      70              0.0000000000
       211        71  TIP3      OH2            44.9773843028       22.3829753414       20.3951550000  TIP3      71              0.0000000000
       212        71  TIP3      H1             45.2809699325       22.0796626077       21.2507650000  TIP3      71              0.0000000000
       213        71  TIP3      H2             45.7388910916       22.2884592249       19.8229650000  TIP3      71              0.0000000000
       214        72  TIP3      OH2           -30.9191991827       14.7577826170       18.1645500000  TIP3      72              0.0000000000
       215        72  TIP3      H1            -31.0559132104       15.6946836032       18.0239400000  TIP3      72              0.0000000000
       216        72  TIP3      H2            -31.7920368323       14.4137116858       18.3542700000  TIP3      72              0.0000000000
       217        73  TIP3      OH2           -52.8946460074       49.3972414568       20.2001700000  TIP3      73              0.0000000000
       218        73  TIP3      H1            -53.6038558634       48.7629809872       20.0954500000  TIP3      73              0.0000000000
       219        73  TIP3      H2            -53.3188029794       50.1732189510       20.5664800000  TIP3      73              0.0000000000
       220        74  TIP3      OH2           -47.9124180015       48.6337615826       19.6138100000  TIP3      74              0.0000000000
       221        74  TIP3      H1            -47.5553770940       49.4036142504       19.1710000000  TIP3      74              0.0000000000
       222        74  TIP3      H2            -48.7285514667       48.4470171117       19.1498300000  TIP3      74              0.0000000000
       223        75  TIP3      OH2            35.7436717331       41.6215999353       20.3719800000  TIP3      75              0.0000000000
       224        75  TIP3      H1             36.5969328160       41.8573460449       20.0078200000  TIP3      75              0.0000000000
       225        75  TIP3      H2             35.8638318692       40.7340759671       20.7097500000  TIP3      75              0.0000000000
       226        76  TIP3      OH2            37.0180958740       45.0634235236       19.4744400000  TIP3      76              0.0000000000
       227        76  TIP3      H1             37.2469010580       45.9879102178       19.5703600000  TIP3      76              0.0000000000
       228        76  TIP3      H2             36.4898740513       44.8654442293       20.2477600000  TIP3      76              0.0000000000
       229        77  TIP3      OH2            52.4002541372      -27.2757793610       20.4122700000  TIP3      77              0.0000000000
       230        77  TIP3      H1             52.1936814717      -28.0650960162       19.9117300000  TIP3      77              0.0000000000
       231        77  TIP3      H2             52.9906281419      -27.5771737057       21.1028200000  TIP3      77              0.0000000000
       232        78  TIP3      OH2            13.6572863749      -50.8504167545       19.4168500000  TIP3      78              0.0000000000
       233        78  TIP3      H1             14.6057857771      -50.8139310524       19.2933500000  TIP3      78              0.0000000000
       234        78  TIP3      H2             13.3686127551      -49.9421016378       19.3282300000  TIP3      78              0.0000000000
       235        79  TIP3      OH2           -41.1431862961       19.9988443524       20.2293900000  TIP3      79              0.0000000000
       236        79  TIP3      H1            -41.6879971912       20.7856812671       20.2117400000  TIP3      79              0.0000000000
       237        79  TIP3      H2            -40.5420322789       20.1066167050       19.4923400000  TIP3      79              0.0000000000
       238        80  TIP3      OH2           -39.2409077755       23.5427275684       20.3779100000  TIP3      80              0.0000000000
       239        80  TIP3      H1            -38.2961263738       23.3893302376       20.3876500000  TIP3      80              0.0000000000
       240        80  TIP3      H2            -39.4870835511       23.5826359540       21.3020600000  TIP3      80              0.0000000000
       241        81  TIP3      OH2            -4.1307942491      -40.1388599905       20.7067050000  TIP3      81              0.0000000000
       242        81  TIP3      H1             -3.5235169749      -40.4497371603       20.0352750000  TIP3      81              0.0000000000
       243        81  TIP3      H2             -3.9188080406      -39.2112805598       20.8110850000  TIP3      81              0.0000000000
       244        82  TIP3      OH2            -1.9414803687      -41.7088581352       21.5917350000  TIP3      82              0.0000000000
       245        82  TIP3      H1             -2.8205596013      -41.3396859346       21.5071450000  TIP3      82              0.0000000000
       246        82  TIP3      H2             -1.9224482651      -42.0840389884       22.4721350000  TIP3      82              0.0000000000
       247        83  TIP3      OH2            -1.1083624069      -43.7429797554       20.0710650000  TIP3      83              0.0000000000
       248        83  TIP3      H1             -1.3088630161      -42.8946395193       20.4664650000  TIP3      83              0.0000000000
       249        83  TIP3      H2             -1.9503149951      -44.1970948527       20.0374550000  TIP3      83              0.0000000000
       250        84  TIP3      OH2           -46.8169896212      -39.6437894833       19.9775000000  TIP3      84              0.0000000000
       251        84  TIP3      H1            -47.3666938674      -39.4517877463       20.7372300000  TIP3      84              0.0000000000
       252        84  TIP3      H2            -45.9840509133      -39.9321986900       20.3507000000  TIP3      84              0.0000000000
       253        85  TIP3      OH2           -43.7505429572      -36.2478387078       20.3870000000  TIP3      85              0.0000000000
       254        85  TIP3      H1            -44.3865746369      -35.5450236662       20.5202000000  TIP3      85              0.0000000000
       255        85  TIP3      H2            -44.1858779585      -36.8552914762       19.7889000000  TIP3      85              0.0000000000
       256        86  TIP3      OH2            25.4688917456       29.8707217392      -20.2001700000  TIP3      86              0.0000000000
       257        86  TIP3      H1             24.5180263472       29.8372559766      -20.0954500000  TIP3      86              0.0000000000
       258        86  TIP3      H2             25.7001762622       29.0171658355      -20.5664800000  TIP3      86              0.0000000000
       259        87  TIP3      OH2            28.5348509284       33.8713956462      -19.6138100000  TIP3      87              0.0000000000
       260        87  TIP3      H1             29.3255187319       33.5631818176      -19.1710000000  TIP3      87              0.0000000000
       261        87  TIP3      H2             27.8167140090       33.4410159353      -19.1498300000  TIP3      87              0.0000000000
       262        88  TIP3      OH2           -21.2914470870       24.8993590162      -19.1367800000  TIP3      88              0.0000000000
       263        88  TIP3      H1            -22.0787569873       25.3889244407      -18.8986600000  TIP3      88              0.0000000000
       264        88  TIP3      H2            -20.8446672928       25.4580092552      -19.7728000000  TIP3      88              0.0000000000
       265        89  TIP3      OH2           -22.5527299445       23.9365586506      -21.5413700000  TIP3      89              0.0000000000
       266        89  TIP3      H1            -21.6971996681       24.1883327876      -21.8891000000  TIP3      89              0.0000000000
       267        89  TIP3      H2            -22.5022632708       24.1420311221      -20.6078400000  TIP3      89              0.0000000000
       268        90  TIP3      OH2           -24.1174553459       20.7007094700      -19.7702300000  TIP3      90              0.0000000000
       269        90  TIP3      H1            -23.5859020906       21.2808315791      -19.2251100000  TIP3      90              0.0000000000
       270        90  TIP3      H2            -24.4624758874       20.0482021364      -19.1607800000  TIP3      90              0.0000000000
       271        91  TIP3      OH2            46.1008631068      -40.1484113039      -19.7062350000  TIP3      91              0.0000000000
       272        91  TIP3      H1             45.4965611904      -39.5956041892      -19.2108050000  TIP3      91              0.0000000000
       273        91  TIP3      H2             46.9607856055      -39.7536822040      -19.5614550000  TIP3      91              0.0000000000
       274        92  TIP3      OH2            43.2509165764      -38.9016265430      -20.9162250000  TIP3      92              0.0000000000
       275        92  TIP3      H1             43.8709691008      -38.7563831930      -20.2016150000  TIP3      92              0.0000000000
       276        92  TIP3      H2             43.0784303854      -39.8429507873      -20.8966950000  TIP3      92              0.0000000000
       277        93  TIP3      OH2           -54.9079115468       46.2598778145      -18.1383050000  TIP3      93            -26.4800000000
       278        93  TIP3      H1            -54.1327725762       46.8163070060      -18.2142250000  TIP3      93            -25.7500000000
       279        93  TIP3      H2            -54.5590055133       45.3822580317      -17.9824850000  TIP3      93            -27.1600000000
       280        94  TIP3      OH2           -51.1159667872       44.5600066351      -18.8676450000  TIP3      94              0.0000000000
       281        94  TIP3      H1            -50.6862586270       45.3001458095      -19.2963350000  TIP3      94              0.0000000000
       282        94  TIP3      H2            -50.3972896323       44.0440284000      -18.5022650000  TIP3      94              0.0000000000
       283        95  TIP3      OH2           -55.4758437314       42.7882663698      -20.6106650000  TIP3      95              0.0000000000
       284        95  TIP3      H1            -56.2028110242       42.1741400660      -20.5077250000  TIP3      95              0.0000000000
       285        95  TIP3      H2            -55.0570840193       42.8108438732      -19.7502250000  TIP3      95              0.0000000000
       286        96  TIP3      OH2           -55.6002582530       45.5894338280      -20.7102650000  TIP3      96              0.0000000000
       287        96  TIP3      H1            -55.3584594913       44.6644253841      -20.6642350000  TIP3      96              0.0000000000
       288        96  TIP3      H2            -55.3509206566       45.9453984715      -19.8574150000  TIP3      96              0.0000000000
       289        97  TIP3      OH2            36.4399035632      -32.5058005440      -19.2380650000  TIP3      97              0.0000000000
       290        97  TIP3      H1             35.9016978789      -31.9329011280      -18.6918550000  TIP3      97              0.0000000000
       291        97  TIP3      H2             36.7838615700      -31.9314036620      -19.9221650000  TIP3      97              0.0000000000
       292        98  TIP3      OH2            36.8490008970      -36.8445769864      -20.7078050000  TIP3      98              0.0000000000
       293        98  TIP3      H1             36.1930210262      -36.2074147298      -20.9905450000  TIP3      98              0.0000000000
       294        98  TIP3      H2             37.1112641462      -36.5483245524      -19.8362050000  TIP3      98              0.0000000000
       295        99  TIP3      OH2            38.8352346696      -34.0166155423      -20.7462850000  TIP3      99              0.0000000000
       296        99  TIP3      H1             38.8425325823      -33.4974495528      -21.5504250000  TIP3      99              0.0000000000
       297        99  TIP3      H2             37.9085471910      -34.0952503854      -20.5197950000  TIP3      99              0.0000000000
       298       100  TIP3      OH2            24.2465179512       47.7097222215      -20.8603100000  TIP3      100             0.0000000000
       299       100  TIP3      H1             24.2054396505       48.6633277842      -20.7883400000  TIP3      100             0.0000000000
       300       100  TIP3      H2             24.3255669046       47.5431222138      -21.7995800000  TIP3      100             0.0000000000
       301       101  TIP3      OH2           -44.0870846912       -7.5500461120      -19.8744850000  TIP3      101             0.0000000000
       302       101  TIP3      H1            -44.8303853290       -7.5224719516      -19.2720050000  TIP3      101             0.0000000000
       303       101  TIP3      H2            -44.0341861937       -8.4656310934      -20.1486150000  TIP3      101             0.0000000000
       304       102  TIP3      OH2           -46.3506855432       -6.6278704001      -21.4468150000  TIP3      102             0.0000000000
       305       102  TIP3      H1            -46.5247398191       -7.3055783535      -20.7936350000  TIP3      102             0.0000000000
       306       102  TIP3      H2            -45.4587438381       -6.3361615048      -21.2581550000  TIP3      102             0.0000000000
       307       103  TIP3      OH2           -49.3669481174       -6.2183815098      -19.3191250000  TIP3      103             0.0000000000
       308       103  TIP3      H1            -49.1126224670       -5.9648966328      -20.2064150000  TIP3      103             0.0000000000
       309       103  TIP3      H2            -50.2761460579       -5.9301181755      -19.2384850000  TIP3      103             0.0000000000
       310       104  TIP3      OH2            13.5918756705       18.8090516494      -19.7316150000  TIP3      104             0.0000000000
       311       104  TIP3      H1             13.5176276756       17.9329508746      -19.3532350000  TIP3      104             0.0000000000
       312       104  TIP3      H2             12.9563671461       18.8159677349      -20.4473850000  TIP3      104             0.0000000000
       313       105  TIP3      OH2            -8.3410423399      -33.4039187475      -20.0109700000  TIP3      105             0.0000000000
       314       105  TIP3      H1             -8.5338675749      -32.8825192162      -19.2317400000  TIP3      105             0.0000000000
       315       105  TIP3      H2             -7.4428464278      -33.1670624106      -20.2419900000  TIP3      105             0.0000000000
       316       106  TIP3      OH2           -30.9375258748      -31.0750858779      -19.5919050000  TIP3      106             0.0000000000
       317       106  TIP3      H1            -30.3552640267      -30.3705003296      -19.3076950000  TIP3      106             0.0000000000
       318       106  TIP3      H2            -30.5330172052      -31.8728639066      -19.2510850000  TIP3      106             0.0000000000
       319       107  TIP3      OH2           -34.9861127016      -31.9611156727      -19.7351400000  TIP3      107           -35.7800000000
       320       107  TIP3      H1            -35.0873003587      -32.7579516582      -19.2145100000  TIP3      107           -36.3400000000
       321       107  TIP3      H2            -34.9089205458      -32.2719864742      -20.6371500000  TIP3      107           -35.7500000000
       322       108  TIP3      OH2           -36.2041945665      -37.1559369847      -19.9098800000  TIP3      108             0.0000000000
       323       108  TIP3      H1            -36.0787286584      -38.1014686066      -19.9901400000  TIP3      108             0.0000000000
       324       108  TIP3      H2            -35.8583174622      -36.7976946505      -20.7273500000  TIP3      108             0.0000000000
       325       109  TIP3      OH2           -35.2305218639      -35.3308347420      -21.8129600000  TIP3      109             0.0000000000
       326       109  TIP3      H1            -35.0107983363      -34.4029614584      -21.8966200000  TIP3      109             0.0000000000
       327       109  TIP3      H2            -35.6946492805      -35.5415459061      -22.6231600000  TIP3      109             0.0000000000
       328       110  TIP3      OH2            37.1954125463      -45.8955106393      -19.5236450000  TIP3      110             0.0000000000
       329       110  TIP3      H1             36.2502662555      -46.0130193114      -19.4281350000  TIP3      110             0.0000000000
       330       110  TIP3      H2             37.3705710797      -45.0367020300      -19.1389550000  TIP3      110             0.0000000000
       331       111  TIP3      OH2            41.3923493905       49.5176765322      -20.9640100000  TIP3      111           -35.5800000000
       332       111  TIP3      H1             41.1107808539       50.4239146922      -21.0892500000  TIP3      111           -36.0100000000
       333       111  TIP3      H2             40.9814746477       49.2501597510      -20.1419100000  TIP3      111           -36.2800000000
       334       112  TIP3      OH2           -42.1517303194      -42.5491836177      -18.9957050000  TIP3      112             0.0000000000
       335       112  TIP3      H1            -43.0167711676      -42.8593517995      -18.7278650000  TIP3      112             0.0000000000
       336       112  TIP3      H2            -42.1773549889      -41.6046953919      -18.8423550000  TIP3      112             0.0000000000
       337       113  TIP3      OH2           -39.1853752117      -11.9979009692      -20.9369200000  TIP3      113             0.0000000000
       338       113  TIP3      H1            -38.3993894073      -11.6199434252      -20.5424600000  TIP3      113             0.0000000000
       339       113  TIP3      H2            -39.4935296619      -11.3279496243      -21.5471900000  TIP3      113             0.0000000000
       340       114  TIP3      OH2           -38.7168345408       -7.1461484936      -18.5873600000  TIP3      114             0.0000000000
       341       114  TIP3      H1            -38.8515783806       -8.0844019206      -18.4541100000  TIP3      114             0.0000000000
       342       114  TIP3      H2            -37.7845781195       -7.0110636541      -18.4174300000  TIP3      114             0.0000000000
       343       115  TIP3      OH2           -32.0688612439      -44.0157763937      -19.3456500000  TIP3      115             0.0000000000
       344       115  TIP3      H1            -32.0248800042      -43.0934632280      -19.5979200000  TIP3      115             0.0000000000
       345       115  TIP3      H2            -32.0212988198      -44.4935916855      -20.1736900000  TIP3      115             0.0000000000
       346       116  TIP3      OH2           -36.5811293406      -42.4340345912      -20.3718000000  TIP3      116             0.0000000000
       347       116  TIP3      H1            -36.4501734267      -43.3753570919      -20.4858100000  TIP3      116             0.0000000000
       348       116  TIP3      H2            -35.7090541279      -42.0926486935      -20.1739200000  TIP3      116             0.0000000000
       349       117  TIP3      OH2           -32.7273911636      -41.8327260148      -21.2093500000  TIP3      117             0.0000000000
       350       117  TIP3      H1            -32.3510789709      -41.6387723417      -22.0678300000  TIP3      117             0.0000000000
       351       117  TIP3      H2            -32.5992126149      -41.0298485859      -20.7041900000  TIP3      117             0.0000000000
       352       118  TIP3      OH2            39.8619572978      -48.3087911715      -18.7990450000  TIP3      118             0.0000000000
       353       118  TIP3      H1             39.5026656658      -49.1820266702      -18.6421850000  TIP3      118             0.0000000000
       354       118  TIP3      H2             40.4854196534      -48.4308692347      -19.5150250000  TIP3      118             0.0000000000
       355       119  TIP3      OH2            -9.1684888065       50.4205822150      -19.8787300000  TIP3      119             0.0000000000
       356       119  TIP3      H1             -9.7007504480       49.7248611960      -19.4928700000  TIP3      119             0.0000000000
       357       119  TIP3      H2             -8.3365440427       50.3756622133      -19.4074700000  TIP3      119             0.0000000000
       358       120  TIP3      OH2            -8.2906997391      -19.6368316308      -19.3312650000  TIP3      120             0.0000000000
       359       120  TIP3      H1             -8.3197158052      -20.5502358869      -19.0465350000  TIP3      120             0.0000000000
       360       120  TIP3      H2             -7.5826656039      -19.6084283671      -19.9747850000  TIP3      120             0.0000000000
       361       121  TIP3      OH2            -6.1321133749      -22.6077316124      -21.1568450000  TIP3      121             0.0000000000
       362       121  TIP3      H1             -6.7272232245      -23.2020878213      -20.6998950000  TIP3      121             0.0000000000
       363       121  TIP3      H2             -5.3164962066      -22.6543866453      -20.6580250000  TIP3      121             0.0000000000
       364       122  TIP3      OH2            -7.9298020737      -24.4909373847      -20.2516650000  TIP3      122             0.0000000000
       365       122  TIP3      H1             -7.3884562928      -25.2795348602      -20.2158850000  TIP3      122             0.0000000000
       366       122  TIP3      H2             -8.5906580435      -24.6834778699      -20.9168150000  TIP3      122             0.0000000000
       367       123  TIP3      OH2           -50.0197512335      -31.2047558181      -18.5443450000  TIP3      123             0.0000000000
       368       123  TIP3      H1            -49.8749278915      -31.7258560285      -19.3340950000  TIP3      123             0.0000000000
       369       123  TIP3      H2            -49.7389188622      -31.7729682820      -17.8270550000  TIP3      123             0.0000000000
       370       124  TIP3      OH2           -51.8636022728      -28.8039689742      -21.8610050000  TIP3      124             0.0000000000
       371       124  TIP3      H1            -52.6507174017      -28.8899202646      -21.3231550000  TIP3      124             0.0000000000
       372       124  TIP3      H2            -51.2404613898      -28.3398167739      -21.3019950000  TIP3      124             0.0000000000
       373       125  TIP3      OH2           -47.4511122447      -29.1084618407      -19.0862850000  TIP3      125             0.0000000000
       374       125  TIP3      H1            -48.3697216138      -29.3111048823      -18.9092550000  TIP3      125             0.0000000000
       375       125  TIP3      H2            -47.3999259183      -28.1545151878      -19.0263050000  TIP3      125             0.0000000000
       376       126  TIP3      OH2           -49.8872721298      -26.2158012643      -19.8581650000  TIP3      126             0.0000000000
       377       126  TIP3      H1            -50.0851181389      -27.0855516134      -19.5108650000  TIP3      126             0.0000000000
       378       126  TIP3      H2            -50.7442877293      -25.8195062737      -20.0153350000  TIP3      126             0.0000000000
       379       127  TIP3      OH2            32.4889376833      -46.1792898171      -20.1865500000  TIP3      127             0.0000000000
       380       127  TIP3      H1             32.8911133499      -46.1216965771      -21.0532500000  TIP3      127             0.0000000000
       381       127  TIP3      H2             31.5931647262      -45.8679279153      -20.3164900000  TIP3      127             0.0000000000
       382       128  TIP3      OH2            30.1060331855      -45.2254776481      -20.5282500000  TIP3      128             0.0000000000
       383       128  TIP3      H1             30.1213932722      -44.2707222361      -20.5948300000  TIP3      128             0.0000000000
       384       128  TIP3      H2             29.2041610924      -45.4663472323      -20.7400200000  TIP3      128             0.0000000000
       385       129  TIP3      OH2            31.8344889489      -48.4967469827      -21.7396700000  TIP3      129             0.0000000000
       386       129  TIP3      H1             31.9111889586      -48.1851090827      -20.8378800000  TIP3      129             0.0000000000
       387       129  TIP3      H2             32.4114289814      -49.2594731945      -21.7799000000  TIP3      129             0.0000000000
       388       130  TIP3      OH2            46.7564075781      -47.5049711604      -21.1534750000  TIP3      130             0.0000000000
       389       130  TIP3      H1             46.1724064291      -46.7740286289      -21.3557050000  TIP3      130             0.0000000000
       390       130  TIP3      H2             47.4158474004      -47.1307307014      -20.5692650000  TIP3      130             0.0000000000
       391       131  TIP3      OH2            45.9049249546      -43.4510820943      -19.2898750000  TIP3      131             0.0000000000
       392       131  TIP3      H1             45.9326845840      -44.3222146798      -18.8941650000  TIP3      131             0.0000000000
       393       131  TIP3      H2             46.7360629708      -43.3736927266      -19.7583250000  TIP3      131             0.0000000000
       394       132  TIP3      OH2            45.1304886123      -44.9831933201      -21.4923850000  TIP3      132             0.0000000000
       395       132  TIP3      H1             45.2672018811      -44.8912014045      -20.5494750000  TIP3      132             0.0000000000
       396       132  TIP3      H2             44.6536197907      -44.1923078372      -21.7440250000  TIP3      132             0.0000000000
       397       133  TIP3      OH2            21.6855554075       42.9220404796      -20.2007050000  TIP3      133             0.0000000000
       398       133  TIP3      H1             21.2283851743       42.5889375766      -20.9728950000  TIP3      133             0.0000000000
       399       133  TIP3      H2             21.0166003346       42.9434405978      -19.5164050000  TIP3      133             0.0000000000
       400       134  TIP3      OH2            41.5489352111        3.5045158957      -20.6962250000  TIP3      134             0.0000000000
       401       134  TIP3      H1             42.4062510087        3.0924488245      -20.5892250000  TIP3      134             0.0000000000
       402       134  TIP3      H2             41.0368093364        3.1899176741      -19.9512550000  TIP3      134             0.0000000000
       403       135  TIP3      OH2            14.2498838230       38.3922702184      -20.1174700000  TIP3      135             0.0000000000
       404       135  TIP3      H1             14.8297513281       37.8888586873      -20.6889300000  TIP3      135             0.0000000000
       405       135  TIP3      H2             14.8405680144       38.9282464252      -19.5882700000  TIP3      135             0.0000000000
       406       136  TIP3      OH2            10.5053412424       35.3620843680      -19.6023800000  TIP3      136             0.0000000000
       407       136  TIP3      H1             11.0742989891       36.0084993370      -19.1844500000  TIP3      136             0.0000000000
       408       136  TIP3      H2              9.6628375908       35.8071799855      -19.6935100000  TIP3      136             0.0000000000
       409       137  TIP3      OH2            15.1223113938       35.1807189109      -18.2003400000  TIP3      137             0.0000000000
       410       137  TIP3      H1             15.7320152518       35.4478592726      -17.5124900000  TIP3      137             0.0000000000
       411       137  TIP3      H2             15.4918085678       35.5466594160      -19.0039500000  TIP3      137             0.0000000000
       412       138  TIP3      OH2            29.1874260671       -9.3968238857      -20.9092800000  TIP3      138             0.0000000000
       413       138  TIP3      H1             29.8985619667       -8.7976937129      -21.1363500000  TIP3      138             0.0000000000
       414       138  TIP3      H2             28.7698021825       -8.9956749255      -20.1471200000  TIP3      138             0.0000000000
