* GENERATED BY CHARMM-GUI (HTTP://WWW.CHARMM-GUI.ORG) V3.7 ON FEB, 08. 2026. JOB
* GENERATES LIPID PACKING USING BIG SPHERES
*  DATE:     2/ 8/26      1:59:54      CREATED BY USER: charmm-gui
*
       359  EXT
         1         1  CHL1      POLO          -24.4637208308      -30.5440786719       12.0029508676  HEAD      1               0.0000000000
         2         2  CHL1      POLO           -8.3730191335       16.0365027320       11.9947220137  HEAD      2               0.0000000000
         3         3  CHL1      POLO           -7.4098256637      -53.8253562635       11.9906395344  HEAD      3               0.0000000000
         4         4  CHL1      POLO           24.0459427204      -21.6376510751       12.0132435948  HEAD      4               0.0000000000
         5         5  CHL1      POLO          -32.7607559169       26.3906090477       11.9335304766  HEAD      5               0.0000000000
         6         6  CHL1      POLO           15.3118875847       44.4850650179       12.0347098838  HEAD      6               0.0000000000
         7         7  CHL1      POLO           14.2843173854       52.7876151561       12.1017237784  HEAD      7               0.0000000000
         8         8  CHL1      POLO          -21.1098522958        7.0981832599       11.9902524896  HEAD      8               0.0000000000
         9         9  CHL1      POLO          -34.4725210787      -10.9780016918       11.8900880968  HEAD      9               0.0000000000
        10        10  CHL1      POLO           44.1347507526       -6.6052216457       11.9687384995  HEAD      10              0.0000000000
        11        11  CHL1      POLO           26.6931840788      -38.1985957782       11.9860935474  HEAD      11              0.0000000000
        12        12  CHL1      POLO           -2.7968791321      -32.3126184936       12.1084425923  HEAD      12              0.0000000000
        13        13  CHL1      POLO           23.0797592230       40.6725504882       11.9786715565  HEAD      13              0.0000000000
        14        14  CHL1      POLO          -18.1129125514      -17.0110303645       12.0744135879  HEAD      14              0.0000000000
        15        15  CHL1      POLO            0.2678999430       51.7909733078       12.0155924131  HEAD      15              0.0000000000
        16        16  CHL1      POLO          -35.7852373969       -2.7707146866       12.0275346868  HEAD      16              0.0000000000
        17        17  CHL1      POLO           23.7449458541      -13.6607899884       12.0542877633  HEAD      17              0.0000000000
        18        18  CHL1      POLO          -46.9475695535      -29.2299955716       11.7813762403  HEAD      18              0.0000000000
        19        19  CHL1      POLO          -25.4477582863      -22.2907490169       12.0993801983  HEAD      19              0.0000000000
        20        20  CHL1      POLO          -14.1403172731       50.2672626080       11.9425760698  HEAD      20              0.0000000000
        21        21  CHL1      POLO          -53.0723975296       11.7329775099       11.9192117192  HEAD      21              0.0000000000
        22        22  CHL1      POLO          -52.7245413030      -42.5547982672       12.1090382837  HEAD      22              0.0000000000
        23        23  CHL1      POLO           49.9441664522      -47.8290447797       11.9488511000  HEAD      23              0.0000000000
        24        24  CHL1      POLO           36.5656968347       50.9297811877       12.0441146237  HEAD      24              0.0000000000
        25        25  CHL1      POLO          -41.7602671553       38.2578253785       11.9687288478  HEAD      25              0.0000000000
        26        26  CHL1      POLO          -28.6644590380       48.3624371915       12.0276840929  HEAD      26              0.0000000000
        27        27  CHL1      POLO            9.8021439395       30.9151458212       11.9216106484  HEAD      27              0.0000000000
        28        28  CHL1      POLO          -41.3071261522      -16.1458039826       11.8575857446  HEAD      28              0.0000000000
        29        29  CHL1      POLO           47.0996332280       22.9889706628       11.9901196863  HEAD      29              0.0000000000
        30        30  CHL1      POLO          -31.3447405840       18.0797896108       11.9029925845  HEAD      30              0.0000000000
        31        31  CHL1      POLO           17.0853373260       27.0919978895       11.9252140765  HEAD      31              0.0000000000
        32        32  CHL1      POLO          -50.5072221320       49.9695331213       11.9055789878  HEAD      32              0.0000000000
        33        33  CHL1      POLO           37.6102453199       42.5663523270       12.1214915732  HEAD      33              0.0000000000
        34        34  CHL1      POLO           54.3905463630      -26.1826209181       11.9981737265  HEAD      34              0.0000000000
        35        35  CHL1      POLO           13.6032104737      -47.8863974174       11.9558981218  HEAD      35              0.0000000000
        36        36  CHL1      POLO          -39.3459755938       21.4119397452       11.9583252262  HEAD      36              0.0000000000
        37        37  CHL1      POLO           -2.1295097455      -40.8662271335       12.0008953408  HEAD      37              0.0000000000
        38        38  CHL1      POLO          -45.7403718761      -37.5772463233       12.0049013517  HEAD      38              0.0000000000
        39        39  POPC      POLO           38.4170596880       34.3667661336       12.0892166435  HEAD      39              0.0000000000
        40        40  POPC      POLO           19.4989716590        1.7314944197       12.0261795698  HEAD      40              0.0000000000
        41        41  POPC      POLO          -47.9645642345      -21.1416626369       12.0728829675  HEAD      41              0.0000000000
        42        42  POPC      POLO           21.9579033930       49.1655277768       12.1463144408  HEAD      42              0.0000000000
        43        43  POPC      POLO           16.7873836959      -25.3505185091       12.0046552504  HEAD      43              0.0000000000
        44        44  POPC      POLO           31.5835080536       28.7050561399       12.0861601051  HEAD      44              0.0000000000
        45        45  POPC      POLO          -23.7459075516      -38.8396364458       11.9008484071  HEAD      45              0.0000000000
        46        46  POPC      POLO           33.2833267210      -33.3486008272       12.1212503251  HEAD      46              0.0000000000
        47        47  POPC      POLO          -10.0074399194      -18.0255619255       11.8936663096  HEAD      47              0.0000000000
        48        48  POPC      POLO           21.2490158088      -51.6649477590       12.0195337287  HEAD      48              0.0000000000
        49        49  POPC      POLO           34.2033077745        4.5095070408       11.9301186807  HEAD      49              0.0000000000
        50        50  POPC      POLO          -35.0397470288       43.2884433116       11.9837649717  HEAD      50              0.0000000000
        51        51  POPC      POLO           31.2285196250      -16.9605363274       11.9895290375  HEAD      51              0.0000000000
        52        52  POPC      POLO          -18.7214710411       28.3059757710       12.0022080014  HEAD      52              0.0000000000
        53        53  POPC      POLO            4.6663403679      -36.0383958974       12.0245382529  HEAD      53              0.0000000000
        54        54  POPC      POLO           54.3177391630       28.0842636765       12.0869098787  HEAD      54              0.0000000000
        55        55  POPC      POLO          -30.2305546859        9.8684916250       12.0467178265  HEAD      55              0.0000000000
        56        56  POPC      POLO            5.7406328711      -44.5596264092       12.0117417786  HEAD      56              0.0000000000
        57        57  POPC      POLO            2.0955561729       34.9433303155       11.7971409227  HEAD      57              0.0000000000
        58        58  POPC      POLO          -44.8103067114        8.4407603762       11.9370627505  HEAD      58              0.0000000000
        59        59  POPC      POLO          -21.9048336054       53.7095344283       11.9521353290  HEAD      59              0.0000000000
        60        60  POPC      POLO          -32.1664813761      -27.3532272338       12.0502742950  HEAD      60              0.0000000000
        61        61  POPC      POLO           12.6920137451      -39.7160851765       12.0327846315  HEAD      61              0.0000000000
        62        62  POPC      POLO           50.7538020138       -1.2110249272       11.9439348750  HEAD      62              0.0000000000
        63        63  POPC      POLO           20.3296846723      -42.9841577602       12.1246705318  HEAD      63              0.0000000000
        64        64  POPC      POLO           42.4860268556        1.6237625164       11.9096661873  HEAD      64              0.0000000000
        65        65  POPC      POLO           47.6333940612      -31.3579556432       12.0292557149  HEAD      65              0.0000000000
        66        66  POPC      POLO           34.4363822645      -41.4502672498       12.0564513077  HEAD      66              0.0000000000
        67        67  POPC      POLO          -37.0421918284      -49.1240676831       12.0253995174  HEAD      67              0.0000000000
        68        68  POPC      POLO          -12.8272441072        9.5194590143       12.1634200635  HEAD      68              0.0000000000
        69        69  POPC      POLO           -5.7233974315       38.8941335404       11.7714176377  HEAD      69              0.0000000000
        70        70  POPC      POLO          -49.3793186105      -12.9427518520       11.9556212712  HEAD      70              0.0000000000
        71        71  POPC      POLO          -27.4410199929       39.7452573953       11.9696379184  HEAD      71              0.0000000000
        72        72  POPC      POLO           50.9435122798       53.0738077516       11.9392200313  HEAD      72              0.0000000000
        73        73  POPC      POLO          -23.4178696443       14.7185569065       12.0273907708  HEAD      73              0.0000000000
        74        74  POPC      POLO           44.2233007699       47.7507502931       12.0088797613  HEAD      74              0.0000000000
        75        75  POPC      POLO           32.1645245996      -25.0487835734       12.0625466199  HEAD      75              0.0000000000
        76        76  POPC      POLO          -19.1626121832       -8.9424446465       11.8939506321  HEAD      76              0.0000000000
        77        77  POPC      POLO          -22.5303896860      -47.1428493948       12.0964376328  HEAD      77              0.0000000000
        78        78  POPC      POLO           25.9011960506        7.2288620467       12.0966964071  HEAD      78              0.0000000000
        79        79  POPC      POLO          -36.4244010196       52.0481860683       11.9539575223  HEAD      79              0.0000000000
        80        80  POPC      POLO           25.2706887589       15.2255584182       12.0914064862  HEAD      80              0.0000000000
        81        81  POPC      POLO          -51.9688233883        3.7393879878       12.0606025295  HEAD      81              0.0000000000
        82        82  POPC      POLO           27.9054419801      -46.5636661940       12.1442862457  HEAD      82              0.0000000000
        83        83  POPC      POLO           39.7532602563      -28.1573052714       12.0848222034  HEAD      83              0.0000000000
        84        84  POPC      POLO          -12.1522012834       33.6409094915       11.9194385086  HEAD      84              0.0000000000
        85        85  POPC      POLO          -47.1893047656       24.9309998090       12.1787565798  HEAD      85              0.0000000000
        86        86  POPC      POLO           40.9533106984        9.7729961975       12.1059314557  HEAD      86              0.0000000000
        87        87  POPC      POLO          -28.7109522817        2.2383898619       12.0448378488  HEAD      87              0.0000000000
        88        88  POPC      POLO           39.3433274206       26.0511630154       11.9584209306  HEAD      88              0.0000000000
        89        89  POPC      POLO          -26.5040675127      -14.0203718416       12.0000514539  HEAD      89              0.0000000000
        90        90  POPC      POLO           53.3951679475      -18.0440084107       11.8639958136  HEAD      90              0.0000000000
        91        91  POPC      POLO           32.3416653417       20.6442742136       11.9857439052  HEAD      91              0.0000000000
        92        92  POPC      POLO           -4.6378004506       30.5091590245       12.0215659392  HEAD      92              0.0000000000
        93        93  POPC      POLO           -8.5749833711      -45.5312402662       11.9176297295  HEAD      93              0.0000000000
        94        94  POPC      POLO           -3.6456009506       22.5074610300       12.2988709295  HEAD      94              0.0000000000
        95        95  POPC      POLO           -9.3954781981      -36.9613411659       12.0808811585  HEAD      95              0.0000000000
        96        96  POPC      POLO           48.7621404463      -39.6276092337       11.9506512511  HEAD      96              0.0000000000
        97        97  POPC      POLO           44.9860684450       39.2541180221       12.0751394231  HEAD      97              0.0000000000
        98        98  POPC      POLO           49.2297813317        6.5963635660       12.0732081214  HEAD      98              0.0000000000
        99        99  POPC      POLO           46.5727630353      -23.0545863273       12.0813345670  HEAD      99              0.0000000000
       100       100  POPC      POLO          -49.6566410634       41.5822972579       12.0333478079  HEAD      100             0.0000000000
       101       101  POPC      POLO           25.4522047416      -29.6930822590       11.8332656152  HEAD      101             0.0000000000
       102       102  POPC      POLO          -44.1346002921        0.1917644437       11.9762040192  HEAD      102             0.0000000000
       103       103  POPC      POLO           37.6209863547      -11.7061551136       12.1157664423  HEAD      103             0.0000000000
       104       104  POPC      POLO            3.2517562027      -26.9806641825       11.8860685202  HEAD      104             0.0000000000
       105       105  POPC      POLO           29.6653304220       -8.5734632396       11.9850380920  HEAD      105             0.0000000000
       106       106  POPC      POLO           17.6473321160        9.7588920069       11.8936229186  HEAD      106             0.0000000000
       107       107  POPC      POLO          -16.1232538210      -42.0748753884       12.0448012791  HEAD      107             0.0000000000
       108       108  POPC      POLO          -53.5329382423      -34.1992614155       11.8746985894  HEAD      108             0.0000000000
       109       109  POPE      POLO            1.1391537550       43.3723465607       12.0116516910  HEAD      109             0.0000000000
       110       110  POPE      POLO           48.1933459008       14.6354661773       12.0367227061  HEAD      110             0.0000000000
       111       111  POPE      POLO          -29.3013314340      -52.3669445014       11.9181118372  HEAD      111             0.0000000000
       112       112  POPE      POLO          -34.0538228345       34.8537410353       11.8546518020  HEAD      112             0.0000000000
       113       113  POPE      POLO           52.0309121715       44.6022270732       12.1108653626  HEAD      113             0.0000000000
       114       114  POPE      POLO           52.1071779271       -9.7838761509       11.9756912369  HEAD      114             0.0000000000
       115       115  POPE      POLO          -27.8716561895       -5.9385946881       12.0475749974  HEAD      115             0.0000000000
       116       116  POPE      POLO          -17.4467295318      -25.1611763586       12.0603999340  HEAD      116             0.0000000000
       117       117  POPE      POLO          -37.0575635526        5.2046770820       12.0521422767  HEAD      117             0.0000000000
       118       118  POPE      POLO            6.8514289484      -52.6644978650       11.9916831967  HEAD      118             0.0000000000
       119       119  POPE      POLO           29.6864801143       45.3304122870       11.8840205736  HEAD      119             0.0000000000
       120       120  POPE      POLO           35.4561168766      -49.8521843473       12.0351421424  HEAD      120             0.0000000000
       121       121  POPE      POLO           40.8971761469      -36.4239426963       11.9446538260  HEAD      121             0.0000000000
       122       122  POPE      POLO           15.9086529863      -13.9135779475       11.7924297569  HEAD      122             0.0000000000
       123       123  POPE      POLO          -39.0113489804      -32.3893763634       12.0678156035  HEAD      123             0.0000000000
       124       124  POPE      POLO          -10.6393546198       -9.7352942389       11.9014925378  HEAD      124             0.0000000000
       125       125  POPE      POLO           36.2687106026       -3.5220939426       12.0531259304  HEAD      125             0.0000000000
       126       126  POPE      POLO          -44.9352985348      -45.7046353206       12.0101552455  HEAD      126             0.0000000000
       127       127  POPE      POLO           -9.9792618403      -27.9751249332       12.2292964935  HEAD      127             0.0000000000
       128       128  POPE      POLO          -54.3574053912       19.9817766742       12.0013706473  HEAD      128             0.0000000000
       129       129  POPE      POLO           -0.7059847726      -49.1436858817       11.9637861772  HEAD      129             0.0000000000
       130       130  POPE      POLO           45.5044833093      -14.9110998118       11.9506855269  HEAD      130             0.0000000000
       131       131  POPE      POLO          -21.1562137662       -1.3014686182       11.8500250152  HEAD      131             0.0000000000
       132       132  POPE      POLO           -6.4294361195       47.0971501919       11.9881224173  HEAD      132             0.0000000000
       133       133  POPE      POLO          -30.4317762872      -44.1369536502       12.0846767070  HEAD      133             0.0000000000
       134       134  POPE      POLO           24.0401721445       32.1366046315       11.9916845540  HEAD      134             0.0000000000
       135       135  POPE      POLO          -38.2548465845       13.3490406742       12.0912257662  HEAD      135             0.0000000000
       136       136  POPE      POLO           33.0105549996       12.4111938915       11.9879100470  HEAD      136             0.0000000000
       137       137  POPE      POLO          -24.6165310990       23.0247063466       12.0265783029  HEAD      137             0.0000000000
       138       138  POPE      POLO           52.9700283450       36.2898522490       11.9998589715  HEAD      138             0.0000000000
       139       139  POPE      POLO          -15.0735826744      -50.7290769109       12.1100212422  HEAD      139             0.0000000000
       140       140  POPE      POLO           19.2213691127      -34.6497092863       11.9494577646  HEAD      140             0.0000000000
       141       141  POPE      POLO           40.2391214212       17.7705788093       11.9326433903  HEAD      141             0.0000000000
       142       142  POPE      POLO          -42.8943563829       46.7593630405       12.1043533843  HEAD      142             0.0000000000
       143       143  POPE      POLO           -3.5679103548      -22.7693180952       11.9951105010  HEAD      143             0.0000000000
       144       144  POPE      POLO           46.2297996062       31.0332749935       11.9037354619  HEAD      144             0.0000000000
       145       145  POPE      POLO           24.5164360323       23.4756740601       12.0490428385  HEAD      145             0.0000000000
       146       146  POPE      POLO          -16.8842959866      -33.5240168318       12.0965377213  HEAD      146             0.0000000000
       147       147  POPE      POLO           43.1463857548      -53.2345962695       12.0923886093  HEAD      147             0.0000000000
       148       148  POPE      POLO            3.0638586775       26.5290496649       11.9894920348  HEAD      148             0.0000000000
       149       149  POPE      POLO           27.2733193242       -0.8328905311       12.0759618511  HEAD      149             0.0000000000
       150       150  POPE      POLO           38.8157344162      -19.8783722825       11.9904295813  HEAD      150             0.0000000000
       151       151  POPE      POLO          -21.0038097426       45.3186043404       12.0995953199  HEAD      151             0.0000000000
       152       152  POPE      POLO           42.1187620962      -44.9828617672       11.9946757408  HEAD      152             0.0000000000
       153       153  POPE      POLO           17.2691708883       18.3256699393       11.9361843102  HEAD      153             0.0000000000
       154       154  POPE      POLO          -31.3995774609      -35.7878478203       12.0909353029  HEAD      154             0.0000000000
       155       155  POPE      POLO            7.6881679389       47.9548809909       11.9718757002  HEAD      155             0.0000000000
       156       156  POPE      POLO          -42.8185852498       -7.7051446907       11.9013346960  HEAD      156             0.0000000000
       157       157  POPE      POLO           11.4602730781      -31.7762280351       11.8489021846  HEAD      157             0.0000000000
       158       158  POPE      POLO          -26.4055487358       31.5272806804       11.9765970556  HEAD      158             0.0000000000
       159       159  POPE      POLO          -51.4667601096      -50.8739260193       12.0284406184  HEAD      159             0.0000000000
       160       160  POPE      POLO           16.4772299007       35.9418657584       12.0844710452  HEAD      160             0.0000000000
       161       161  POPE      POLO          -16.3631201768       18.4368563439       12.0326066055  HEAD      161             0.0000000000
       162       162  POPE      POLO           30.5722434693       37.0495222423       12.0651453530  HEAD      162             0.0000000000
       163       163  POPE      POLO          -48.3211554803       33.1901285933       12.0644054369  HEAD      163             0.0000000000
       164       164  POPE      POLO          -11.2434472807       25.0933941790       11.8921164105  HEAD      164             0.0000000000
       165       165  POPE      POLO          -46.4611946286       16.5867709305       12.0415211260  HEAD      165             0.0000000000
       166       166  POPE      POLO          -37.9512396149      -40.8505050211       11.9637834488  HEAD      166             0.0000000000
       167       167  POPE      POLO          -40.6005569217       29.8574339498       12.0190161797  HEAD      167             0.0000000000
       168       168  POPE      POLO          -50.7037630799       -4.6557053568       12.0860412900  HEAD      168             0.0000000000
       169       169  POPE      POLO           19.5140885077       -6.4890636405       11.9502897445  HEAD      169             0.0000000000
       170       170  POPE      POLO            8.8700163723       39.7267774208       12.1117407842  HEAD      170             0.0000000000
       171       171  POPE      POLO            9.5966717824       21.6831055289       12.0284150849  HEAD      171             0.0000000000
       172       172  POPE      POLO          -33.1953422012      -19.2472898271       11.9509465977  HEAD      172             0.0000000000
       173       173  POPE      POLO          -43.9532182599      -53.9392273548       11.8230553137  HEAD      173             0.0000000000
       174       174  POPE      POLO          -19.7004407308       36.7811016412       12.0178023712  HEAD      174             0.0000000000
       175       175  POPE      POLO          -13.2056215820       41.9692712531       12.1306215795  HEAD      175             0.0000000000
       176       176  POPE      POLO          -40.1087785586      -24.2271128883       11.9951583802  HEAD      176             0.0000000000
       177       177  POPE      POLO            9.9614333746       13.4776817221       12.0412374950  HEAD      177             0.0000000000
       178       178  POPE      POLO           28.9513186346       53.8837044649       11.9284037869  HEAD      178             0.0000000000
       179       179  CHL1      POLO           27.5876581810       31.1109392461      -12.1058716123  HEAD      179             0.0000000000
       180       180  CHL1      POLO          -22.1695669610       22.3794776868      -11.9914457777  HEAD      180             0.0000000000
       181       181  CHL1      POLO           44.8295083546      -38.1146745420      -12.1342876346  HEAD      181             0.0000000000
       182       182  CHL1      POLO          -53.8254481948       43.2933018065      -12.0282496199  HEAD      182             0.0000000000
       183       183  CHL1      POLO           36.9618213864      -35.1425784544      -11.9338844201  HEAD      183             0.0000000000
       184       184  CHL1      POLO           25.6421182238       47.9918596022      -11.9097035198  HEAD      184             0.0000000000
       185       185  CHL1      POLO           49.8914814262       30.1387486112      -12.0897571656  HEAD      185             0.0000000000
       186       186  CHL1      POLO          -24.0157962400       38.7273757631      -11.8897972127  HEAD      186             0.0000000000
       187       187  CHL1      POLO          -46.5621233846       -6.6968333907      -11.9506560377  HEAD      187             0.0000000000
       188       188  CHL1      POLO           14.0742361798       21.0887304071      -11.9327393245  HEAD      188             0.0000000000
       189       189  CHL1      POLO           -7.3255562632      -31.0618446112      -12.0685267965  HEAD      189             0.0000000000
       190       190  CHL1      POLO          -28.8014500134      -29.2278683363      -12.1299051896  HEAD      190             0.0000000000
       191       191  CHL1      POLO          -35.5851240140      -34.4908692410      -11.9112354844  HEAD      191             0.0000000000
       192       192  CHL1      POLO           38.0229685051      -43.2297509410      -12.0409087386  HEAD      192             0.0000000000
       193       193  CHL1      POLO           40.0999164225       49.9039539859      -11.8966211411  HEAD      193             0.0000000000
       194       194  CHL1      POLO          -42.0828433410      -39.6453258690      -11.9661981700  HEAD      194             0.0000000000
       195       195  CHL1      POLO          -39.0446283532       -9.8915333776      -11.9362901651  HEAD      195             0.0000000000
       196       196  CHL1      POLO          -34.5967871105      -42.7024230784      -11.9833226134  HEAD      196             0.0000000000
       197       197  CHL1      POLO           39.0761563927      -51.3765261800      -12.1433762147  HEAD      197             0.0000000000
       198       198  CHL1      POLO           33.3125336400       44.7483001600      -11.9673540779  HEAD      198             0.0000000000
       199       199  CHL1      POLO           49.9513017382      -16.9700823650      -12.1784408644  HEAD      199             0.0000000000
       200       200  CHL1      POLO          -10.6286637309       48.0988174210      -12.0353950087  HEAD      200             0.0000000000
       201       201  CHL1      POLO           -8.2624233223      -22.5044929218      -12.0278116253  HEAD      201             0.0000000000
       202       202  CHL1      POLO          -50.8466224133      -28.2608067173      -11.9945090886  HEAD      202             0.0000000000
       203       203  CHL1      POLO           31.2098490039      -48.0903105399      -12.0468250107  HEAD      203             0.0000000000
       204       204  CHL1      POLO           45.7954725329      -46.1950021565      -11.9886896356  HEAD      204             0.0000000000
       205       205  CHL1      POLO           18.7964894685       42.8553728477      -11.9956492683  HEAD      205             0.0000000000
       206       206  CHL1      POLO           39.8541394679        3.4133888574      -12.0401738038  HEAD      206             0.0000000000
       207       207  CHL1      POLO           12.1459759632       37.4803494487      -11.9195243994  HEAD      207             0.0000000000
       208       208  CHL1      POLO           28.2311477771       -7.5564427732      -11.8999740597  HEAD      208             0.0000000000
       209       209  POPC      POLO           -1.4444280344      -18.1729765188      -11.3799728027  HEAD      209             0.0000000000
       210       210  POPC      POLO           35.9843392907      -18.8768325765      -12.1653728861  HEAD      210             0.0000000000
       211       211  POPC      POLO           51.1912716311       22.0412564332      -12.0103915356  HEAD      211             0.0000000000
       212       212  POPC      POLO            6.1650370212      -21.0487438499      -12.0795224316  HEAD      212             0.0000000000
       213       213  POPC      POLO          -49.0252420029      -44.6065928368      -11.9471310350  HEAD      213             0.0000000000
       214       214  POPC      POLO            4.6476022504       41.0785359271      -12.0090503446  HEAD      214             0.0000000000
       215       215  POPC      POLO           -9.1775931227       39.6797168182      -12.1689691645  HEAD      215             0.0000000000
       216       216  POPC      POLO          -35.6104105523       12.1496643929      -12.0066163657  HEAD      216             0.0000000000
       217       217  POPC      POLO           21.0212880029       25.7508508980      -12.0681322914  HEAD      217             0.0000000000
       218       218  POPC      POLO           45.9272643231        8.4704846189      -12.0548225475  HEAD      218             0.0000000000
       219       219  POPC      POLO          -16.0586922373       35.3837970750      -11.8839849404  HEAD      219             0.0000000000
       220       220  POPC      POLO           16.7537745657      -49.4463231667      -11.9625709974  HEAD      220             0.0000000000
       221       221  POPC      POLO            1.4167950326      -43.0147037746      -11.9765765771  HEAD      221             0.0000000000
       222       222  POPC      POLO          -48.0788164618        1.9853887823      -11.9710945114  HEAD      222             0.0000000000
       223       223  POPC      POLO           -0.7042573439       27.3945663040      -11.9354951410  HEAD      223             0.0000000000
       224       224  POPC      POLO          -18.1760415299       51.7281997800      -12.0265744591  HEAD      224             0.0000000000
       225       225  POPC      POLO           19.7953771888       34.3075578017      -12.0850619548  HEAD      225             0.0000000000
       226       226  POPC      POLO          -22.3673629651      -24.4927726172      -12.0801884473  HEAD      226             0.0000000000
       227       227  POPC      POLO           32.3175155940       52.8410883848      -11.9668231510  HEAD      227             0.0000000000
       228       228  POPC      POLO           35.3926963942      -10.4666374670      -11.9748514860  HEAD      228             0.0000000000
       229       229  POPC      POLO           14.6546260727      -32.8087644640      -12.0514966781  HEAD      229             0.0000000000
       230       230  POPC      POLO           28.8460689284      -23.6689782352      -12.0797770353  HEAD      230             0.0000000000
       231       231  POPC      POLO            6.4666956781       23.5321750928      -11.9480195094  HEAD      231             0.0000000000
       232       232  POPC      POLO          -36.3424143704      -26.4525094142      -11.9714802989  HEAD      232             0.0000000000
       233       233  POPC      POLO           36.3957922513      -27.0581388265      -11.9674296994  HEAD      233             0.0000000000
       234       234  POPC      POLO          -41.1788647102      -47.7795084454      -12.0488689156  HEAD      234             0.0000000000
       235       235  POPC      POLO           11.2035146394       46.0571230590      -11.9358988828  HEAD      235             0.0000000000
       236       236  POPC      POLO           40.9976466756       41.4422856301      -12.0045001780  HEAD      236             0.0000000000
       237       237  POPC      POLO          -47.7815081788      -52.7134241383      -11.9751513884  HEAD      237             0.0000000000
       238       238  POPC      POLO          -17.5299654023       -9.9032041252      -11.8514413365  HEAD      238             0.0000000000
       239       239  POPC      POLO           -5.7392470450       20.9224023647      -12.1238236554  HEAD      239             0.0000000000
       240       240  POPC      POLO            3.7735026702       49.5584559930      -12.0431191370  HEAD      240             0.0000000000
       241       241  POPC      POLO           -8.2368152782       30.8781595094      -12.0972100351  HEAD      241             0.0000000000
       242       242  POPC      POLO           15.8034818993      -41.0091442443      -12.0279899211  HEAD      242             0.0000000000
       243       243  POPC      POLO          -23.4974851172      -15.5933646083      -12.0458803679  HEAD      243             0.0000000000
       244       244  POPC      POLO          -51.5348521941      -19.9466189271      -12.0153382456  HEAD      244             0.0000000000
       245       245  POPC      POLO          -52.8829096113      -11.6063611027      -12.0230126505  HEAD      245             0.0000000000
       246       246  POPC      POLO           52.2973993265       13.7983930658      -12.0427340000  HEAD      246             0.0000000000
       247       247  POPC      POLO          -36.4763785665       20.4656916080      -11.9882457733  HEAD      247             0.0000000000
       248       248  POPC      POLO           53.5240347245        5.3916812110      -11.9817053568  HEAD      248             0.0000000000
       249       249  POPC      POLO           -6.0412582506      -39.5295328297      -11.9291116948  HEAD      249             0.0000000000
       250       250  POPC      POLO            7.2472681205      -29.5259581619      -11.9584540867  HEAD      250             0.0000000000
       251       251  POPC      POLO          -49.8990915529      -36.5245850185      -11.9199223305  HEAD      251             0.0000000000
       252       252  POPC      POLO          -32.8262682330       50.0207307376      -11.9697281348  HEAD      252             0.0000000000
       253       253  POPC      POLO           23.4726507803        9.5287758664      -12.0535634488  HEAD      253             0.0000000000
       254       254  POPC      POLO           30.0078675720       14.9488878839      -12.0797657129  HEAD      254             0.0000000000
       255       255  POPC      POLO           51.8557302912      -33.0521896826      -12.1059436451  HEAD      255             0.0000000000
       256       256  POPC      POLO          -34.1661059157        3.8913754247      -12.0998524824  HEAD      256             0.0000000000
       257       257  POPC      POLO           44.4690413649       16.9566214943      -11.9541962210  HEAD      257             0.0000000000
       258       258  POPC      POLO          -40.3086226379       53.3695343680      -11.9982042998  HEAD      258             0.0000000000
       259       259  POPC      POLO          -24.8037515430       -6.9856577379      -12.0861543046  HEAD      259             0.0000000000
       260       260  POPC      POLO           18.6049087002        2.9984176689      -11.8813591827  HEAD      260             0.0000000000
       261       261  POPC      POLO            8.0626036911      -38.0213226857      -11.9649467967  HEAD      261             0.0000000000
       262       262  POPC      POLO          -26.0182178991      -54.5172890442      -12.1320191247  HEAD      262             0.0000000000
       263       263  POPC      POLO          -46.9994719865       48.4054082387      -12.0158688951  HEAD      263             0.0000000000
       264       264  POPC      POLO          -13.7151698434       19.4342333724      -12.0175141673  HEAD      264             0.0000000000
       265       265  POPC      POLO          -38.4988200710       36.8467969762      -12.0751400569  HEAD      265             0.0000000000
       266       266  POPC      POLO          -37.3469240111       28.6372167446      -11.8766112380  HEAD      266             0.0000000000
       267       267  POPC      POLO           -1.6651167574       36.0501239856      -12.1233484312  HEAD      267             0.0000000000
       268       268  POPC      POLO          -14.7415533526      -27.4657101251      -11.8749231466  HEAD      268             0.0000000000
       269       269  POPC      POLO           14.8009466248       13.4363000557      -12.0606973779  HEAD      269             0.0000000000
       270       270  POPC      POLO          -39.1237947031       45.0812832553      -11.9634829354  HEAD      270             0.0000000000
       271       271  POPC      POLO          -31.4333268588       41.9840806229      -11.9146051220  HEAD      271             0.0000000000
       272       272  POPC      POLO           32.0183178868        7.0931366520      -12.0591761025  HEAD      272             0.0000000000
       273       273  POPC      POLO          -28.1154071287      -37.7638593488      -11.9737980574  HEAD      273             0.0000000000
       274       274  POPC      POLO          -45.2530925620      -14.9277437054      -12.0757806671  HEAD      274             0.0000000000
       275       275  POPC      POLO          -11.7051029017      -52.6379095075      -11.9221295326  HEAD      275             0.0000000000
       276       276  POPC      POLO           48.8199144525       38.4982302687      -11.9364727684  HEAD      276             0.0000000000
       277       277  POPC      POLO            5.5455197468       32.2565506068      -12.1274551360  HEAD      277             0.0000000000
       278       278  POPC      POLO          -33.4982942495      -51.1287660674      -12.1263421116  HEAD      278             0.0000000000
       279       279  POPC      POLO           -9.7568122883      -14.2736611421      -11.8813984679  HEAD      279             0.0000000000
       280       280  POPC      POLO           10.4360248794       54.4587331272      -12.0483959918  HEAD      280             0.0000000000
       281       281  POPC      POLO           46.6331986368      -54.4514530385      -11.9404254568  HEAD      281             0.0000000000
       282       282  POPC      POLO           14.0118961353      -24.0216948212      -12.0033758662  HEAD      282             0.0000000000
       283       283  POPC      POLO           36.6778068617       19.9758401027      -12.0366177370  HEAD      283             0.0000000000
       284       284  POPE      POLO          -37.5078109490      -18.0929420306      -11.9584287782  HEAD      284             0.0000000000
       285       285  POPE      POLO          -29.2426579439       17.4482310906      -12.0860470466  HEAD      285             0.0000000000
       286       286  POPE      POLO           29.4302990966      -31.8028846324      -11.9954034142  HEAD      286             0.0000000000
       287       287  POPE      POLO           21.0666279499      -20.3286037741      -11.9522053582  HEAD      287             0.0000000000
       288       288  POPE      POLO          -43.1392017036       15.1749827927      -11.9778507767  HEAD      288             0.0000000000
       289       289  POPE      POLO           -2.9588485189       44.6652245252      -11.9877062579  HEAD      289             0.0000000000
       290       290  POPE      POLO          -28.0697470909        9.1715086478      -12.0719898282  HEAD      290             0.0000000000
       291       291  POPE      POLO          -20.5987683888        6.5456437267      -11.9106241004  HEAD      291             0.0000000000
       292       292  POPE      POLO          -15.3057500956       27.2411043525      -11.9774005841  HEAD      292             0.0000000000
       293       293  POPE      POLO           -0.4919376608      -26.3016094652      -11.9882617294  HEAD      293             0.0000000000
       294       294  POPE      POLO           28.9020008716       22.7825184652      -11.9298099711  HEAD      294             0.0000000000
       295       295  POPE      POLO          -29.9124493502      -21.0156652815      -12.0615558163  HEAD      295             0.0000000000
       296       296  POPE      POLO           54.5583778855       51.4906555010      -12.0970089361  HEAD      296             0.0000000000
       297       297  POPE      POLO          -29.9954656462       25.4332655583      -12.0017444118  HEAD      297             0.0000000000
       298       298  POPE      POLO           26.4339076555       39.6360323654      -12.1868844857  HEAD      298             0.0000000000
       299       299  POPE      POLO          -26.3486704975        0.8133533986      -11.8394088028  HEAD      299             0.0000000000
       300       300  POPE      POLO          -40.3870745424       -1.5133420854      -12.1367047815  HEAD      300             0.0000000000
       301       301  POPE      POLO          -14.6444093958       11.7920180697      -11.6991273578  HEAD      301             0.0000000000
       302       302  POPE      POLO            0.5077474803      -34.4858778804      -12.1262394316  HEAD      302             0.0000000000
       303       303  POPE      POLO           24.4413411186      -52.9074267280      -11.9671091034  HEAD      303             0.0000000000
       304       304  POPE      POLO          -21.9311116704       14.5230401307      -12.0326098672  HEAD      304             0.0000000000
       305       305  POPE      POLO           23.4979862016      -44.5346657928      -11.8847891442  HEAD      305             0.0000000000
       306       306  POPE      POLO           13.1276936145       29.1435920059      -11.9286009783  HEAD      306             0.0000000000
       307       307  POPE      POLO          -44.0464854576       23.5825308789      -12.0675554601  HEAD      307             0.0000000000
       308       308  POPE      POLO           28.6218926556      -15.6640904438      -11.7848237927  HEAD      308             0.0000000000
       309       309  POPE      POLO           47.4190558735       46.5019167039      -12.0143150264  HEAD      309             0.0000000000
       310       310  POPE      POLO           50.8625345351      -25.1926008502      -12.0778629634  HEAD      310             0.0000000000
       311       311  POPE      POLO          -13.9666972602      -35.7908744886      -12.0375568575  HEAD      311             0.0000000000
       312       312  POPE      POLO          -19.2148465228      -49.2025213322      -11.9721580987  HEAD      312             0.0000000000
       313       313  POPE      POLO          -43.2708641170      -31.3894454031      -12.0297522381  HEAD      313             0.0000000000
       314       314  POPE      POLO           42.5450831004      -13.8493859651      -11.9607857710  HEAD      314             0.0000000000
       315       315  POPE      POLO          -41.6707652636        7.0291658954      -11.9705309462  HEAD      315             0.0000000000
       316       316  POPE      POLO           52.5549905607      -41.3337830328      -11.9434388575  HEAD      316             0.0000000000
       317       317  POPE      POLO          -12.6327205872      -44.1854125742      -11.9963294469  HEAD      317             0.0000000000
       318       318  POPE      POLO          -31.3839625044      -12.7079746656      -11.9700286218  HEAD      318             0.0000000000
       319       319  POPE      POLO           22.6741143223      -36.2547371187      -12.0236054524  HEAD      319             0.0000000000
       320       320  POPE      POLO           42.1295324864       33.3456733690      -11.9921276512  HEAD      320             0.0000000000
       321       321  POPE      POLO          -50.5706087859       18.6882385503      -12.0961280700  HEAD      321             0.0000000000
       322       322  POPE      POLO          -52.9839765390       35.1074112907      -11.9424027790  HEAD      322             0.0000000000
       323       323  POPE      POLO           26.6491739954        1.4055716713      -11.8882511504  HEAD      323             0.0000000000
       324       324  POPE      POLO           30.4760023441      -40.0390308383      -11.9754514496  HEAD      324             0.0000000000
       325       325  POPE      POLO          -46.2219925391       40.0738401859      -11.9307904616  HEAD      325             0.0000000000
       326       326  POPE      POLO          -45.0011109930       31.9188783250      -12.0283688165  HEAD      326             0.0000000000
       327       327  POPE      POLO           21.3131856323      -12.4029779855      -12.1287540577  HEAD      327             0.0000000000
       328       328  POPE      POLO          -23.0129574173       30.4642858062      -11.9800101745  HEAD      328             0.0000000000
       329       329  POPE      POLO          -16.0397085005      -19.1521236685      -12.0430323259  HEAD      329             0.0000000000
       330       330  POPE      POLO           38.3556851010       11.8103073491      -12.1161070701  HEAD      330             0.0000000000
       331       331  POPE      POLO            2.6720317830      -51.2921447719      -11.9023208033  HEAD      331             0.0000000000
       332       332  POPE      POLO          -54.1906521264       -3.2724000356      -12.0304579532  HEAD      332             0.0000000000
       333       333  POPE      POLO            9.1946572705      -46.1669631024      -11.9038930953  HEAD      333             0.0000000000
       334       334  POPE      POLO          -17.0964350387       43.5051017050      -11.9439752468  HEAD      334             0.0000000000
       335       335  POPE      POLO           43.9522421430      -30.1208662894      -11.9447679555  HEAD      335             0.0000000000
       336       336  POPE      POLO           41.5096849115       -5.1230217854      -11.9616781242  HEAD      336             0.0000000000
       337       337  POPE      POLO          -21.3727890735      -32.7262591083      -12.0553633271  HEAD      337             0.0000000000
       338       338  POPE      POLO           47.3859158532        0.1156846868      -12.0802107329  HEAD      338             0.0000000000
       339       339  POPE      POLO           -5.1803062008      -48.2195225870      -12.0976554319  HEAD      339             0.0000000000
       340       340  POPE      POLO           48.7621113113       -8.5650896875      -12.0325148592  HEAD      340             0.0000000000
       341       341  POPE      POLO          -24.8473119116       46.9496892049      -12.0536603876  HEAD      341             0.0000000000
       342       342  POPE      POLO          -30.7165570592       33.6589350928      -12.0782459630  HEAD      342             0.0000000000
       343       343  POPE      POLO          -32.6309275423       -4.5009029629      -12.1712605403  HEAD      343             0.0000000000
       344       344  POPE      POLO           21.3736156729       -4.2748788252      -11.7438250597  HEAD      344             0.0000000000
       345       345  POPE      POLO           43.3872702610      -22.1025077110      -11.9662183292  HEAD      345             0.0000000000
       346       346  POPE      POLO          -26.9634924665      -46.1247385017      -11.9628702872  HEAD      346             0.0000000000
       347       347  POPE      POLO          -43.9987273148      -23.0650791963      -11.9751534344  HEAD      347             0.0000000000
       348       348  POPE      POLO           21.6401626778      -28.3225281542      -11.8402174187  HEAD      348             0.0000000000
       349       349  POPE      POLO           -3.9369671967       52.9398399155      -12.0331803936  HEAD      349             0.0000000000
       350       350  POPE      POLO           53.4702292058      -49.5130114430      -12.0542213924  HEAD      350             0.0000000000
       351       351  POPE      POLO           35.4036977318       28.1960416787      -11.9647171000  HEAD      351             0.0000000000
       352       352  POPE      POLO           34.2711683877       36.3731207971      -12.0152373957  HEAD      352             0.0000000000
       353       353  POPE      POLO          -49.3546362193       10.3100274191      -12.0312382895  HEAD      353             0.0000000000
       354       354  POPE      POLO           34.0701737192       -1.9635525480      -12.1345466784  HEAD      354             0.0000000000
       355       355  POPE      POLO          -51.6885753629       27.0436577829      -11.8611724632  HEAD      355             0.0000000000
       356       356  POPE      POLO           43.2052401071       25.2126958255      -11.9222797183  HEAD      356             0.0000000000
       357       357  POPE      POLO           17.9610515384       51.2167557148      -11.9374951732  HEAD      357             0.0000000000
       358       358  POPE      POLO           21.9126962471       17.7454118390      -11.9306361773  HEAD      358             0.0000000000
       359       359  POPE      POLO          -20.5933729573      -40.9877491795      -11.9883364366  HEAD      359             0.0000000000
