;;
;; Generated by CHARMM-GUI FF-Converter
;;
;; Correspondance:
;; jul316@lehigh.edu or wonpil@lehigh.edu
;;
;; GROMACS topology file for LIG
;;


[ moleculetype ]
; name	nrexcl
LIG	     3

[ atoms ]
; nr	type	resnr	residu	atom	cgnr	charge	mass
     1      OG2D1      1      LIG     O1      1    -0.524000    15.9994   ; qtot -0.524
     2      OG301      1      LIG     O2      2    -0.348000    15.9994   ; qtot -0.872
     3      CG2O1      1      LIG     C1      3     0.489000    12.0110   ; qtot -0.383
     4      CG2D1      1      LIG     C2      4    -0.360000    12.0110   ; qtot -0.743
     5      CG2D1      1      LIG     C3      5    -0.065000    12.0110   ; qtot -0.808
     6     CG2R61      1      LIG     C4      6    -0.115000    12.0110   ; qtot -0.923
     7     CG2R61      1      LIG     C5      7    -0.118000    12.0110   ; qtot -1.041
     8     CG2R61      1      LIG     C6      8    -0.117000    12.0110   ; qtot -1.158
     9     CG2R61      1      LIG     C7      9    -0.210000    12.0110   ; qtot -1.368
    10     CG2R61      1      LIG     C8     10    -0.173000    12.0110   ; qtot -1.541
    11     CG2R61      1      LIG     C9     11     0.205000    12.0110   ; qtot -1.336
    12     CG2R61      1      LIG    C10     12     0.124000    12.0110   ; qtot -1.212
    13     CG2R61      1      LIG    C11     13    -0.017000    12.0110   ; qtot -1.229
    14     CG2R61      1      LIG    C12     14     0.028000    12.0110   ; qtot -1.201
    15     CG2R51      1      LIG    C13     15    -0.148000    12.0110   ; qtot -1.349
    16     CG2R61      1      LIG    C14     16    -0.241000    12.0110   ; qtot -1.590
    17     CG2R51      1      LIG    C15     17    -0.062000    12.0110   ; qtot -1.652
    18     CG2RC0      1      LIG    C16     18     0.186000    12.0110   ; qtot -1.466
    19     CG2RC0      1      LIG    C17     19    -0.096000    12.0110   ; qtot -1.562
    20      NG2S1      1      LIG     N1     20    -0.461000    14.0070   ; qtot -2.023
    21      NG3P1      1      LIG     N2     21    -0.515000    14.0070   ; qtot -2.538
    22      NG301      1      LIG     N3     22    -0.289000    14.0070   ; qtot -2.827
    23     NG2R51      1      LIG     N4     23     0.044000    14.0070   ; qtot -2.783
    24      CG321      1      LIG    C18     24     0.099000    12.0110   ; qtot -2.684
    25      CG324      1      LIG    C19     25     0.215000    12.0110   ; qtot -2.469
    26      CG331      1      LIG    C20     26    -0.162000    12.0110   ; qtot -2.631
    27      CG321      1      LIG    C21     27    -0.181000    12.0110   ; qtot -2.812
    28      CG321      1      LIG    C22     28    -0.132000    12.0110   ; qtot -2.944
    29      CG324      1      LIG    C23     29     0.150000    12.0110   ; qtot -2.794
    30      CG321      1      LIG    C24     30     0.028000    12.0110   ; qtot -2.766
    31      CG321      1      LIG    C25     31    -0.148000    12.0110   ; qtot -2.914
    32      CG324      1      LIG    C26     32     0.131000    12.0110   ; qtot -2.783
    33      CG311      1      LIG    C27     33     0.082000    12.0110   ; qtot -2.701
    34       HGA4      1      LIG     H1     34     0.173000     1.0080   ; qtot -2.528
    35       HGA4      1      LIG     H2     35     0.150000     1.0080   ; qtot -2.378
    36      HGR61      1      LIG     H3     36     0.116000     1.0080   ; qtot -2.262
    37      HGR61      1      LIG     H4     37     0.116000     1.0080   ; qtot -2.146
    38      HGR61      1      LIG     H5     38     0.116000     1.0080   ; qtot -2.030
    39      HGR61      1      LIG     H6     39     0.134000     1.0080   ; qtot -1.896
    40      HGR61      1      LIG     H7     40     0.134000     1.0080   ; qtot -1.762
    41      HGR61      1      LIG     H8     41     0.184000     1.0080   ; qtot -1.578
    42      HGR52      1      LIG     H9     42     0.114000     1.0080   ; qtot -1.464
    43       HGP1      1      LIG    H10     43     0.341000     1.0080   ; qtot -1.123
    44       HGP2      1      LIG    H11     44     0.323000     1.0080   ; qtot -0.800
    45       HGA2      1      LIG    H12     45     0.090000     1.0080   ; qtot -0.710
    46       HGA2      1      LIG    H13     46     0.090000     1.0080   ; qtot -0.620
    47       HGA2      1      LIG    H14     47     0.090000     1.0080   ; qtot -0.530
    48       HGA2      1      LIG    H15     48     0.090000     1.0080   ; qtot -0.440
    49       HGA3      1      LIG    H16     49     0.090000     1.0080   ; qtot -0.350
    50       HGA3      1      LIG    H17     50     0.090000     1.0080   ; qtot -0.260
    51       HGA3      1      LIG    H18     51     0.090000     1.0080   ; qtot -0.170
    52       HGA2      1      LIG    H19     52     0.090000     1.0080   ; qtot -0.080
    53       HGA2      1      LIG    H20     53     0.090000     1.0080   ; qtot  0.010
    54       HGA2      1      LIG    H21     54     0.090000     1.0080   ; qtot  0.100
    55       HGA2      1      LIG    H22     55     0.090000     1.0080   ; qtot  0.190
    56       HGA2      1      LIG    H23     56     0.090000     1.0080   ; qtot  0.280
    57       HGA2      1      LIG    H24     57     0.090000     1.0080   ; qtot  0.370
    58       HGA2      1      LIG    H25     58     0.090000     1.0080   ; qtot  0.460
    59       HGA2      1      LIG    H26     59     0.090000     1.0080   ; qtot  0.550
    60       HGA2      1      LIG    H27     60     0.090000     1.0080   ; qtot  0.640
    61       HGA2      1      LIG    H28     61     0.090000     1.0080   ; qtot  0.730
    62       HGA2      1      LIG    H29     62     0.090000     1.0080   ; qtot  0.820
    63       HGA2      1      LIG    H30     63     0.090000     1.0080   ; qtot  0.910
    64       HGA1      1      LIG    H31     64     0.090000     1.0080   ; qtot  1.000

[ bonds ]
; ai	aj	funct	b0	Kb
    1     3     1
    2    11     1
    2    24     1
    3    20     1
    3    27     1
    4     5     1
    4    24     1
    4    34     1
    5    25     1
    5    35     1
    6     8     1
    6    11     1
    6    36     1
    7    11     1
    7    12     1
    7    37     1
    8    13     1
    8    38     1
    9    10     1
    9    14     1
    9    39     1
   10    16     1
   10    40     1
   12    13     1
   12    20     1
   13    28     1
   14    18     1
   14    22     1
   15    17     1
   15    18     1
   15    31     1
   16    19     1
   16    41     1
   17    23     1
   17    42     1
   18    19     1
   19    23     1
   20    43     1
   21    25     1
   21    29     1
   21    32     1
   21    44     1
   22    30     1
   22    33     1
   23    26     1
   24    45     1
   24    46     1
   25    47     1
   25    48     1
   26    49     1
   26    50     1
   26    51     1
   27    28     1
   27    52     1
   27    53     1
   28    54     1
   28    55     1
   29    30     1
   29    56     1
   29    57     1
   30    58     1
   30    59     1
   31    33     1
   31    60     1
   31    61     1
   32    33     1
   32    62     1
   32    63     1
   33    64     1

[ pairs ]
; ai	aj	funct	c6	c12 or
; ai	aj	funct	fudgeQQ	q1	q2	c6	c12
    1    12     1
    1    28     1
    1    43     1
    1    52     1
    1    53     1
    2     5     1
    2     8     1
    2    12     1
    2    34     1
    2    36     1
    2    37     1
    3     7     1
    3    13     1
    3    54     1
    3    55     1
    4    11     1
    4    21     1
    4    47     1
    4    48     1
    5    29     1
    5    32     1
    5    44     1
    5    45     1
    5    46     1
    6    12     1
    6    24     1
    6    28     1
    6    37     1
    7     8     1
    7    24     1
    7    28     1
    7    36     1
    7    43     1
    8    20     1
    8    27     1
    8    54     1
    8    55     1
    9    15     1
    9    19     1
    9    30     1
    9    33     1
    9    41     1
   10    18     1
   10    22     1
   10    23     1
   11    13     1
   11    20     1
   11    38     1
   11    45     1
   11    46     1
   12    27     1
   12    38     1
   12    54     1
   12    55     1
   13    36     1
   13    37     1
   13    43     1
   13    52     1
   13    53     1
   14    16     1
   14    17     1
   14    23     1
   14    29     1
   14    31     1
   14    32     1
   14    40     1
   14    58     1
   14    59     1
   14    64     1
   15    16     1
   15    22     1
   15    26     1
   15    32     1
   15    64     1
   16    17     1
   16    26     1
   16    39     1
   17    33     1
   17    49     1
   17    50     1
   17    51     1
   17    60     1
   17    61     1
   18    26     1
   18    30     1
   18    33     1
   18    39     1
   18    41     1
   18    42     1
   18    60     1
   18    61     1
   19    22     1
   19    31     1
   19    40     1
   19    42     1
   19    49     1
   19    50     1
   19    51     1
   20    28     1
   20    37     1
   20    52     1
   20    53     1
   21    22     1
   21    31     1
   21    35     1
   21    58     1
   21    59     1
   21    64     1
   22    39     1
   22    56     1
   22    57     1
   22    60     1
   22    61     1
   22    62     1
   22    63     1
   23    31     1
   23    41     1
   24    25     1
   24    35     1
   25    30     1
   25    33     1
   25    34     1
   25    56     1
   25    57     1
   25    62     1
   25    63     1
   26    42     1
   27    43     1
   28    38     1
   29    33     1
   29    47     1
   29    48     1
   29    62     1
   29    63     1
   30    31     1
   30    32     1
   30    44     1
   30    64     1
   31    42     1
   31    62     1
   31    63     1
   32    47     1
   32    48     1
   32    56     1
   32    57     1
   32    60     1
   32    61     1
   33    44     1
   33    58     1
   33    59     1
   34    35     1
   34    45     1
   34    46     1
   35    47     1
   35    48     1
   36    38     1
   39    40     1
   40    41     1
   44    47     1
   44    48     1
   44    56     1
   44    57     1
   44    62     1
   44    63     1
   52    54     1
   52    55     1
   53    54     1
   53    55     1
   56    58     1
   56    59     1
   57    58     1
   57    59     1
   60    64     1
   61    64     1
   62    64     1
   63    64     1

[ angles ] 
; ai	aj	ak	funct	th0	cth	S0	Kub
   11     2    24     5
    1     3    20     5
    1     3    27     5
   20     3    27     5
    5     4    24     5
    5     4    34     5
   24     4    34     5
    4     5    25     5
    4     5    35     5
   25     5    35     5
    8     6    11     5
    8     6    36     5
   11     6    36     5
   11     7    12     5
   11     7    37     5
   12     7    37     5
    6     8    13     5
    6     8    38     5
   13     8    38     5
   10     9    14     5
   10     9    39     5
   14     9    39     5
    9    10    16     5
    9    10    40     5
   16    10    40     5
    2    11     6     5
    2    11     7     5
    6    11     7     5
    7    12    13     5
    7    12    20     5
   13    12    20     5
    8    13    12     5
    8    13    28     5
   12    13    28     5
    9    14    18     5
    9    14    22     5
   18    14    22     5
   17    15    18     5
   17    15    31     5
   18    15    31     5
   10    16    19     5
   10    16    41     5
   19    16    41     5
   15    17    23     5
   15    17    42     5
   23    17    42     5
   14    18    15     5
   14    18    19     5
   15    18    19     5
   16    19    18     5
   16    19    23     5
   18    19    23     5
    3    20    12     5
    3    20    43     5
   12    20    43     5
   25    21    29     5
   25    21    32     5
   25    21    44     5
   29    21    32     5
   29    21    44     5
   32    21    44     5
   14    22    30     5
   14    22    33     5
   30    22    33     5
   17    23    19     5
   17    23    26     5
   19    23    26     5
    2    24     4     5
    2    24    45     5
    2    24    46     5
    4    24    45     5
    4    24    46     5
   45    24    46     5
    5    25    21     5
    5    25    47     5
    5    25    48     5
   21    25    47     5
   21    25    48     5
   47    25    48     5
   23    26    49     5
   23    26    50     5
   23    26    51     5
   49    26    50     5
   49    26    51     5
   50    26    51     5
    3    27    28     5
    3    27    52     5
    3    27    53     5
   28    27    52     5
   28    27    53     5
   52    27    53     5
   13    28    27     5
   13    28    54     5
   13    28    55     5
   27    28    54     5
   27    28    55     5
   54    28    55     5
   21    29    30     5
   21    29    56     5
   21    29    57     5
   30    29    56     5
   30    29    57     5
   56    29    57     5
   22    30    29     5
   22    30    58     5
   22    30    59     5
   29    30    58     5
   29    30    59     5
   58    30    59     5
   15    31    33     5
   15    31    60     5
   15    31    61     5
   33    31    60     5
   33    31    61     5
   60    31    61     5
   21    32    33     5
   21    32    62     5
   21    32    63     5
   33    32    62     5
   33    32    63     5
   62    32    63     5
   22    33    31     5
   22    33    32     5
   22    33    64     5
   31    33    32     5
   31    33    64     5
   32    33    64     5

[ dihedrals ]
; ai	aj	ak	al	funct	phi0	cp	mult
   11     2    24    45     9
   11     2    24    46     9
    1     3    20    12     9
    1     3    20    43     9
   27     3    20    43     9
    1     3    27    28     9
    1     3    27    52     9
    1     3    27    53     9
   20     3    27    28     9
   20     3    27    52     9
   20     3    27    53     9
   24     4     5    25     9
   24     4     5    35     9
   34     4     5    35     9
    5     4    24    45     9
    5     4    24    46     9
   34     4    24    45     9
   34     4    24    46     9
   25     5     4    34     9
    4     5    25    21     9
    4     5    25    47     9
    4     5    25    48     9
   35     5    25    47     9
   35     5    25    48     9
   11     6     8    13     9
   11     6     8    38     9
   36     6     8    38     9
   11     7    12    13     9
   11     7    12    20     9
   13     8     6    36     9
    6     8    13    12     9
    6     8    13    28     9
   14     9    10    16     9
   14     9    10    40     9
   39     9    10    40     9
   10     9    14    18     9
   10     9    14    22     9
   16    10     9    39     9
    9    10    16    19     9
    9    10    16    41     9
   40    10    16    41     9
    6    11     2    24     9
    7    11     2    24     9
    2    11     6     8     9
    2    11     6    36     9
    7    11     6     8     9
    7    11     6    36     9
    2    11     7    12     9
    2    11     7    37     9
    6    11     7    12     9
    6    11     7    37     9
   13    12     7    37     9
   20    12     7    37     9
    7    12    13     8     9
    7    12    13    28     9
   20    12    13    28     9
    7    12    20    43     9
   13    12    20    43     9
   12    13     8    38     9
   28    13     8    38     9
    8    13    12    20     9
    8    13    28    27     9
    8    13    28    54     9
    8    13    28    55     9
   12    13    28    27     9
   12    13    28    54     9
   12    13    28    55     9
   18    14     9    39     9
   22    14     9    39     9
    9    14    18    15     9
    9    14    18    19     9
    9    14    22    30     9
    9    14    22    33     9
   18    14    22    30     9
   18    14    22    33     9
   18    15    17    23     9
   18    15    17    42     9
   31    15    17    42     9
   17    15    18    19     9
   17    15    31    33     9
   17    15    31    60     9
   17    15    31    61     9
   18    15    31    33     9
   18    15    31    60     9
   18    15    31    61     9
   19    16    10    40     9
   10    16    19    18     9
   10    16    19    23     9
   23    17    15    31     9
   15    17    23    19     9
   15    17    23    26     9
   15    18    14    22     9
   19    18    14    22     9
   14    18    15    17     9
   14    18    15    31     9
   19    18    15    31     9
   14    18    19    16     9
   14    18    19    23     9
   15    18    19    16     9
   15    18    19    23     9
   18    19    16    41     9
   23    19    16    41     9
   16    19    23    17     9
   16    19    23    26     9
   18    19    23    26     9
   12    20     3    27     9
    3    20    12     7     9
    3    20    12    13     9
   29    21    25    47     9
   29    21    25    48     9
   32    21    25    47     9
   32    21    25    48     9
   44    21    25    47     9
   44    21    25    48     9
   25    21    29    30     9
   25    21    29    56     9
   25    21    29    57     9
   32    21    29    56     9
   32    21    29    57     9
   44    21    29    56     9
   44    21    29    57     9
   25    21    32    33     9
   25    21    32    62     9
   25    21    32    63     9
   29    21    32    33     9
   29    21    32    62     9
   29    21    32    63     9
   44    21    32    62     9
   44    21    32    63     9
   14    22    30    29     9
   14    22    30    58     9
   14    22    30    59     9
   33    22    30    58     9
   33    22    30    59     9
   14    22    33    31     9
   14    22    33    32     9
   14    22    33    64     9
   30    22    33    31     9
   30    22    33    32     9
   30    22    33    64     9
   19    23    17    42     9
   26    23    17    42     9
   17    23    19    18     9
   17    23    26    49     9
   17    23    26    50     9
   17    23    26    51     9
   19    23    26    49     9
   19    23    26    50     9
   19    23    26    51     9
    4    24     2    11     9
    2    24     4     5     9
    2    24     4    34     9
   21    25     5    35     9
    5    25    21    29     9
    5    25    21    32     9
    5    25    21    44     9
    3    27    28    13     9
    3    27    28    54     9
    3    27    28    55     9
   52    27    28    54     9
   52    27    28    55     9
   53    27    28    54     9
   53    27    28    55     9
   13    28    27    52     9
   13    28    27    53     9
   30    29    21    32     9
   30    29    21    44     9
   21    29    30    22     9
   21    29    30    58     9
   21    29    30    59     9
   56    29    30    58     9
   56    29    30    59     9
   57    29    30    58     9
   57    29    30    59     9
   29    30    22    33     9
   22    30    29    56     9
   22    30    29    57     9
   15    31    33    22     9
   15    31    33    32     9
   15    31    33    64     9
   60    31    33    64     9
   61    31    33    64     9
   33    32    21    44     9
   21    32    33    22     9
   21    32    33    31     9
   21    32    33    64     9
   62    32    33    64     9
   63    32    33    64     9
   22    33    31    60     9
   22    33    31    61     9
   32    33    31    60     9
   32    33    31    61     9
   22    33    32    62     9
   22    33    32    63     9
   31    33    32    62     9
   31    33    32    63     9

[ dihedrals ]
; ai	aj	ak	al	funct	q0	cq
    3    27    20     1     2

#ifdef POSRES
[ position_restraints ]
    1     1    POSRES_FC_BB    POSRES_FC_BB    POSRES_FC_BB   
    2     1    POSRES_FC_BB    POSRES_FC_BB    POSRES_FC_BB   
    3     1    POSRES_FC_BB    POSRES_FC_BB    POSRES_FC_BB   
    4     1    POSRES_FC_BB    POSRES_FC_BB    POSRES_FC_BB   
    5     1    POSRES_FC_BB    POSRES_FC_BB    POSRES_FC_BB   
    6     1    POSRES_FC_BB    POSRES_FC_BB    POSRES_FC_BB   
    7     1    POSRES_FC_BB    POSRES_FC_BB    POSRES_FC_BB   
    8     1    POSRES_FC_BB    POSRES_FC_BB    POSRES_FC_BB   
    9     1    POSRES_FC_BB    POSRES_FC_BB    POSRES_FC_BB   
   10     1    POSRES_FC_BB    POSRES_FC_BB    POSRES_FC_BB   
   11     1    POSRES_FC_BB    POSRES_FC_BB    POSRES_FC_BB   
   12     1    POSRES_FC_BB    POSRES_FC_BB    POSRES_FC_BB   
   13     1    POSRES_FC_BB    POSRES_FC_BB    POSRES_FC_BB   
   14     1    POSRES_FC_BB    POSRES_FC_BB    POSRES_FC_BB   
   15     1    POSRES_FC_BB    POSRES_FC_BB    POSRES_FC_BB   
   16     1    POSRES_FC_BB    POSRES_FC_BB    POSRES_FC_BB   
   17     1    POSRES_FC_BB    POSRES_FC_BB    POSRES_FC_BB   
   18     1    POSRES_FC_BB    POSRES_FC_BB    POSRES_FC_BB   
   19     1    POSRES_FC_BB    POSRES_FC_BB    POSRES_FC_BB   
   20     1    POSRES_FC_BB    POSRES_FC_BB    POSRES_FC_BB   
   21     1    POSRES_FC_BB    POSRES_FC_BB    POSRES_FC_BB   
   22     1    POSRES_FC_BB    POSRES_FC_BB    POSRES_FC_BB   
   23     1    POSRES_FC_BB    POSRES_FC_BB    POSRES_FC_BB   
   24     1    POSRES_FC_BB    POSRES_FC_BB    POSRES_FC_BB   
   25     1    POSRES_FC_BB    POSRES_FC_BB    POSRES_FC_BB   
   26     1    POSRES_FC_BB    POSRES_FC_BB    POSRES_FC_BB   
   27     1    POSRES_FC_BB    POSRES_FC_BB    POSRES_FC_BB   
   28     1    POSRES_FC_BB    POSRES_FC_BB    POSRES_FC_BB   
   29     1    POSRES_FC_BB    POSRES_FC_BB    POSRES_FC_BB   
   30     1    POSRES_FC_BB    POSRES_FC_BB    POSRES_FC_BB   
   31     1    POSRES_FC_BB    POSRES_FC_BB    POSRES_FC_BB   
   32     1    POSRES_FC_BB    POSRES_FC_BB    POSRES_FC_BB   
   33     1    POSRES_FC_BB    POSRES_FC_BB    POSRES_FC_BB   
#endif
