;;
;; Generated by CHARMM-GUI FF-Converter
;;
;; Correspondance:
;; jul316@lehigh.edu or wonpil@lehigh.edu
;;
;; GROMACS topology file for LDP
;;


[ moleculetype ]
; name	nrexcl
LDP	     3

[ atoms ]
; nr	type	resnr	residu	atom	cgnr	charge	mass
     1     CG2R61    500      LDP     C1      1     0.055000    12.0110   ; qtot  0.055
     2      NG3P3    500      LDP      N      2    -0.296000    14.0070   ; qtot -0.241
     3      OG311    500      LDP     O1      3    -0.538000    15.9994   ; qtot -0.779
     4     CG2R61    500      LDP     C2      4    -0.115000    12.0110   ; qtot -0.894
     5      OG311    500      LDP     O2      5    -0.538000    15.9994   ; qtot -1.432
     6     CG2R61    500      LDP     C3      6     0.122000    12.0110   ; qtot -1.310
     7     CG2R61    500      LDP     C4      7     0.114000    12.0110   ; qtot -1.196
     8     CG2R61    500      LDP     C5      8    -0.104000    12.0110   ; qtot -1.300
     9     CG2R61    500      LDP     C6      9    -0.117000    12.0110   ; qtot -1.417
    10      CG321    500      LDP     C7     10    -0.197000    12.0110   ; qtot -1.614
    11      CG324    500      LDP     C8     11     0.085000    12.0110   ; qtot -1.529
    12       HGP2    500      LDP     H1     12     0.328000     1.0080   ; qtot -1.201
    13       HGP2    500      LDP     H2     13     0.328000     1.0080   ; qtot -0.873
    14       HGP2    500      LDP     H3     14     0.328000     1.0080   ; qtot -0.545
    15       HGP1    500      LDP     H4     15     0.420000     1.0080   ; qtot -0.125
    16      HGR61    500      LDP     H5     16     0.115000     1.0080   ; qtot -0.010
    17       HGP1    500      LDP     H6     17     0.420000     1.0080   ; qtot  0.410
    18      HGR61    500      LDP     H7     18     0.115000     1.0080   ; qtot  0.525
    19      HGR61    500      LDP     H8     19     0.115000     1.0080   ; qtot  0.640
    20       HGA2    500      LDP     H9     20     0.090000     1.0080   ; qtot  0.730
    21       HGA2    500      LDP    H10     21     0.090000     1.0080   ; qtot  0.820
    22       HGA2    500      LDP    H11     22     0.090000     1.0080   ; qtot  0.910
    23       HGA2    500      LDP    H12     23     0.090000     1.0080   ; qtot  1.000

[ bonds ]
; ai	aj	funct	b0	Kb
    1     4     1
    1     9     1
    1    10     1
    2    11     1
    2    12     1
    2    13     1
    2    14     1
    3     6     1
    3    15     1
    4     6     1
    4    16     1
    5     7     1
    5    17     1
    6     7     1
    7     8     1
    8     9     1
    8    18     1
    9    19     1
   10    11     1
   10    20     1
   10    21     1
   11    22     1
   11    23     1

[ pairs ]
; ai	aj	funct	c6	c12 or
; ai	aj	funct	fudgeQQ	q1	q2	c6	c12
    1     2     1
    1     3     1
    1     7     1
    1    18     1
    1    22     1
    1    23     1
    2    20     1
    2    21     1
    3     5     1
    3     8     1
    3    16     1
    4     5     1
    4     8     1
    4    11     1
    4    15     1
    4    19     1
    4    20     1
    4    21     1
    5     9     1
    5    18     1
    6     9     1
    6    10     1
    6    17     1
    6    18     1
    7    15     1
    7    16     1
    7    19     1
    8    10     1
    8    17     1
    9    11     1
    9    16     1
    9    20     1
    9    21     1
   10    12     1
   10    13     1
   10    14     1
   10    16     1
   10    19     1
   12    22     1
   12    23     1
   13    22     1
   13    23     1
   14    22     1
   14    23     1
   18    19     1
   20    22     1
   20    23     1
   21    22     1
   21    23     1

[ angles ] 
; ai	aj	ak	funct	th0	cth	S0	Kub
    4     1     9     5
    4     1    10     5
    9     1    10     5
   11     2    12     5
   11     2    13     5
   11     2    14     5
   12     2    13     5
   12     2    14     5
   13     2    14     5
    6     3    15     5
    1     4     6     5
    1     4    16     5
    6     4    16     5
    7     5    17     5
    3     6     4     5
    3     6     7     5
    4     6     7     5
    5     7     6     5
    5     7     8     5
    6     7     8     5
    7     8     9     5
    7     8    18     5
    9     8    18     5
    1     9     8     5
    1     9    19     5
    8     9    19     5
    1    10    11     5
    1    10    20     5
    1    10    21     5
   11    10    20     5
   11    10    21     5
   20    10    21     5
    2    11    10     5
    2    11    22     5
    2    11    23     5
   10    11    22     5
   10    11    23     5
   22    11    23     5

[ dihedrals ]
; ai	aj	ak	al	funct	phi0	cp	mult
    9     1     4    16     9
   10     1     4    16     9
    4     1     9     8     9
    4     1     9    19     9
   10     1     9    19     9
    4     1    10    11     9
    4     1    10    20     9
    4     1    10    21     9
    9     1    10    11     9
    9     1    10    20     9
    9     1    10    21     9
   12     2    11    22     9
   12     2    11    23     9
   13     2    11    22     9
   13     2    11    23     9
   14     2    11    22     9
   14     2    11    23     9
    6     4     1     9     9
    6     4     1    10     9
    1     4     6     3     9
    1     4     6     7     9
    4     6     3    15     9
    7     6     3    15     9
    3     6     4    16     9
    7     6     4    16     9
    3     6     7     5     9
    3     6     7     8     9
    4     6     7     5     9
    4     6     7     8     9
    6     7     5    17     9
    8     7     5    17     9
    5     7     8     9     9
    5     7     8    18     9
    6     7     8     9     9
    6     7     8    18     9
    7     8     9    19     9
   18     8     9    19     9
    8     9     1    10     9
    1     9     8     7     9
    1     9     8    18     9
    1    10    11     2     9
    1    10    11    22     9
    1    10    11    23     9
   20    10    11    22     9
   20    10    11    23     9
   21    10    11    22     9
   21    10    11    23     9
   10    11     2    12     9
   10    11     2    13     9
   10    11     2    14     9
    2    11    10    20     9
    2    11    10    21     9

#ifdef POSRES
[ position_restraints ]
    1     1    POSRES_FC_BB    POSRES_FC_BB    POSRES_FC_BB   
    2     1    POSRES_FC_BB    POSRES_FC_BB    POSRES_FC_BB   
    3     1    POSRES_FC_BB    POSRES_FC_BB    POSRES_FC_BB   
    4     1    POSRES_FC_BB    POSRES_FC_BB    POSRES_FC_BB   
    5     1    POSRES_FC_BB    POSRES_FC_BB    POSRES_FC_BB   
    6     1    POSRES_FC_BB    POSRES_FC_BB    POSRES_FC_BB   
    7     1    POSRES_FC_BB    POSRES_FC_BB    POSRES_FC_BB   
    8     1    POSRES_FC_BB    POSRES_FC_BB    POSRES_FC_BB   
    9     1    POSRES_FC_BB    POSRES_FC_BB    POSRES_FC_BB   
   10     1    POSRES_FC_BB    POSRES_FC_BB    POSRES_FC_BB   
   11     1    POSRES_FC_BB    POSRES_FC_BB    POSRES_FC_BB   
#endif
